         168 PROCESSORS WORKING

         
 *******************************************************************************
 *                                                                             *
 *                               CRYSTAL17                                     *
 *                      public : 1.0.1 - Feb 1st, 2017                         *
 *                       HTTP://WWW.CRYSTAL.UNITO.IT                           *
 *                                                                             *
 *                              MAIN AUTHORS                                   *
 *                                                                             *
 *  R. DOVESI(1,11), V.R. SAUNDERS(2), C. ROETTI(1,11), R. ORLANDO(1,11),      *
 *  C.M. ZICOVICH-WILSON(1,3), F. PASCALE(4), B. CIVALLERI(1,11),              *
 *  K. DOLL(5), N.M. HARRISON(2,6), I.J. BUSH(7), Ph. D'ARCO(8),               *
 *  M. LLUNELL(9), M. CAUSA'(10), Y. NOEL(8), L. MASCHIO(1,11), A. ERBA(1,11)  *
 *  M. RE'RAT(14), S. CASASSA(1,11)                                            *
 *                                                                             *
 *        CONTRIBUTIONS TO THE CODE HAVE ALSO BEEN GIVEN BY                    *
 *                                                                             *
 *  M. FERRABONE(1,11), M. DE LA PIERRE(1,11), M. FERRERO(1,11),               *
 *  J. BAIMA(1,11), E. ALBANESE(1,11), M.F. PEINTINGER(12), R. BAST(13),       *
 *  B. KIRTMAN(15), V. LACIVITA(1,11), R. DEMICHELIS(1,16)                     *
 *  G. BRANDEBURG(17), S. SALUSTRO(1,11), G. SANSONE(1,11)                     *
 *  M.T. RUGGIERO(18)                                                          *
 *                                                                             *
 * (1) THEORETICAL CHEMISTRY GROUP - UNIVERSITA' DI TORINO - TORINO (ITALY)    *

 * (2) COMPUTATIONAL SCIENCE & ENGINEERING DEPARTMENT - STFC DARESBURY (UK)    *
 * (3) UNIVERSIDAD AUTONOMA DEL ESTADO DE MORELOS - CUERNAVACA (MEXICO)        *
 * (4) UNIVERSITE' DE LORRAINE - NANCY (FRANCE)                                *
 * (5) UNIVERSITAET STUTTGART- STUTTGART (GERMANY)                             *
 * (6) IMPERIAL COLLEGE - LONDON (UK)                                          *
 * (7) OXFORD E-RESEARCH CENTRE - OXFORD (UK)                                  *
 * (8) UPMC - SORBONNE UNIVERSITES - PARIS (FRANCE)                            *
 * (9) UNIVERSIDAD DE BARCELONA - BARCELONA (SPAIN)                            *
 *(10) UNIVERSITA' DI NAPOLI "FEDERICO II" - NAPOLI (ITALY)                    *
 *(11) NIS - NANOSTRUCTURED INTERFACES AND SURFACES - TORINO (ITALY)           *
 *(12) MPI FUER CHEMISCHE ENERGIEKONVERSION - MUELHEIM AN DER RUHR (GERMANY)   *
 *(13) UNIVERSITY OF TROMSO - TROMSO (NORWAY)                                  *
 *(14) UNIVERSITE' DE PAU ET DES PAYS DE L'ADOUR - PAU (FRANCE)                *
 *(15) UNIVERSITY OF CALIFORNIA SANTA BARBARA - SANTA BARBARA (USA)            *
 *(16) CURTIN UNIVERSITY - PERTH (AUSTRALIA)                                   *
 *(17) UNIVERSITY COLLEGE LONDON - LONDON (UK)                                 *
 *(18) CAMBRIDGE UNIVERSITY - CAMBRIDGE (UK)                                   *
 *                                                                             *
 *******************************************************************************
 EEEEEEEEEE STARTING  DATE 17 05 2023 TIME 14:45:56.8
 Thiourea PBE-D3 OPTGEOM P21ma                                                   

 CRYSTAL CALCULATION
 (INPUT ACCORDING TO THE INTERNATIONAL TABLES FOR X-RAY CRYSTALLOGRAPHY)
 CRYSTAL FAMILY                       :  ORTHORHOMBIC
 CRYSTAL CLASS  (GROTH - 1921)        :  ORTHORHOMBIC PYRAMIDAL               

 SPACE GROUP (NONCENTROSYMMETRIC)     :  P 21 M A        

 LATTICE PARAMETERS  (ANGSTROMS AND DEGREES) - CONVENTIONAL CELL
        A           B           C        ALPHA        BETA       GAMMA
     7.49543     8.40317     5.46855    90.00000    90.00000    90.00000


 NUMBER OF IRREDUCIBLE ATOMS IN THE CONVENTIONAL CELL:   10

 INPUT COORDINATES

 ATOM AT. N.              COORDINATES
   1  16     1.126507379052E-02 -1.005549809284E-20  3.422032796519E-01
   2   6     7.329919032214E-02 -1.005549809284E-20  3.579584351816E-02
   3   7     9.702429750842E-02  1.364569401269E-01 -8.506724299564E-02
   4  16     4.667334294875E-02  5.000000000000E-01  1.264977943617E-01
   5   6    -9.275896113436E-02  5.000000000000E-01  3.808575953892E-01
   6   7    -1.477406378712E-01  3.630347367642E-01  4.802157543608E-01
   7   1     1.314276756884E-01  1.344978906325E-01 -2.657922531806E-01
   8   1     7.574687875444E-02  2.448062358584E-01 -2.301786858569E-03
   9   1    -2.263070767936E-01  3.661392129560E-01 -3.657980781135E-01
  10   1    -9.854046024996E-02  2.557259716114E-01  4.187403112069E-01

 *******************************************************************************

 << INFORMATION >>: FROM NOW ON, ALL COORDINATES REFER TO THE PRIMITIVE CELL

 *******************************************************************************

 LATTICE PARAMETERS  (ANGSTROMS AND DEGREES) - PRIMITIVE CELL
       A          B          C        ALPHA      BETA     GAMMA        VOLUME
    7.49543    8.40317    5.46855    90.00000  90.00000  90.00000    344.438812

 COORDINATES OF THE EQUIVALENT ATOMS (FRACTIONAL UNITS)

 N. ATOM EQUIV AT. N.          X                  Y                  Z

   1   1   1   16 S     1.12650737905E-02 -1.00554980928E-20  3.42203279652E-01
   2   1   2   16 S    -4.88734926209E-01  1.00554980928E-20 -3.42203279652E-01

   3   2   1    6 C     7.32991903221E-02 -1.00554980928E-20  3.57958435182E-02
   4   2   2    6 C    -4.26700809678E-01  1.00554980928E-20 -3.57958435182E-02

   5   3   1    7 N     9.70242975084E-02  1.36456940127E-01 -8.50672429956E-02
   6   3   2    7 N    -4.02975702492E-01 -1.36456940127E-01  8.50672429956E-02
   7   3   3    7 N     9.70242975084E-02 -1.36456940127E-01 -8.50672429956E-02
   8   3   4    7 N    -4.02975702492E-01  1.36456940127E-01  8.50672429956E-02

   9   4   1   16 S     4.66733429488E-02 -5.00000000000E-01  1.26497794362E-01
  10   4   2   16 S    -4.53326657051E-01  5.00000000000E-01 -1.26497794362E-01

  11   5   1    6 C    -9.27589611344E-02 -5.00000000000E-01  3.80857595389E-01
  12   5   2    6 C     4.07241038866E-01  5.00000000000E-01 -3.80857595389E-01

  13   6   1    7 N    -1.47740637871E-01  3.63034736764E-01  4.80215754361E-01
  14   6   2    7 N     3.52259362129E-01 -3.63034736764E-01 -4.80215754361E-01
  15   6   3    7 N    -1.47740637871E-01 -3.63034736764E-01  4.80215754361E-01
  16   6   4    7 N     3.52259362129E-01  3.63034736764E-01 -4.80215754361E-01

  17   7   1    1 H     1.31427675688E-01  1.34497890633E-01 -2.65792253181E-01
  18   7   2    1 H    -3.68572324312E-01 -1.34497890633E-01  2.65792253181E-01
  19   7   3    1 H     1.31427675688E-01 -1.34497890633E-01 -2.65792253181E-01
  20   7   4    1 H    -3.68572324312E-01  1.34497890633E-01  2.65792253181E-01

  21   8   1    1 H     7.57468787544E-02  2.44806235858E-01 -2.30178685857E-03
  22   8   2    1 H    -4.24253121246E-01 -2.44806235858E-01  2.30178685857E-03
  23   8   3    1 H     7.57468787544E-02 -2.44806235858E-01 -2.30178685857E-03
  24   8   4    1 H    -4.24253121246E-01  2.44806235858E-01  2.30178685857E-03

  25   9   1    1 H    -2.26307076794E-01  3.66139212956E-01 -3.65798078114E-01
  26   9   2    1 H     2.73692923206E-01 -3.66139212956E-01  3.65798078114E-01
  27   9   3    1 H    -2.26307076794E-01 -3.66139212956E-01 -3.65798078114E-01
  28   9   4    1 H     2.73692923206E-01  3.66139212956E-01  3.65798078114E-01

  29  10   1    1 H    -9.85404602500E-02  2.55725971611E-01  4.18740311207E-01
  30  10   2    1 H     4.01459539750E-01 -2.55725971611E-01 -4.18740311207E-01
  31  10   3    1 H    -9.85404602500E-02 -2.55725971611E-01  4.18740311207E-01
  32  10   4    1 H     4.01459539750E-01  2.55725971611E-01 -4.18740311207E-01

 NUMBER OF SYMMETRY OPERATORS         :    4
 *******************************************************************************
 * GEOMETRY EDITING - INPUT COORDINATES ARE GIVEN IN ANGSTROM         
 *******************************************************************************

 GEOMETRY NOW FULLY CONSISTENT WITH THE GROUP

 FRQFRQFRQFRQFRQFRQFRQFRQFRQFRQFRQFRQFRQFRQFRQFRQFRQFRQFRQFRQFRQFRQFRQFRQFRQFRQ

                       FREQUENCY CALCULATION

 INFORMATION **** INPFREQ **** NUMERICAL DERIVATIVE OF GRADIENT OPTION           2
 INFORMATION **** INPFREQ **** IR INTENSITIES EVALUATED THROUGH CPHF APPROACH
 INFORMATION **** INPFREQ **** NEW DEFAULT - IMPOSING ECKART CONDITIONS TO THE HESSIAN

 GCALCO - MAX INDICES DIRECT LATTICE VECTOR    13    12    19
 NO.OF VECTORS CREATED 6999 STARS 1052 RMAX   157.51672 BOHR

 GEOMETRY FOR WAVE FUNCTION - DIMENSIONALITY OF THE SYSTEM    3
 (NON PERIODIC DIRECTION: LATTICE PARAMETER FORMALLY SET TO 500)
 *******************************************************************************
 LATTICE PARAMETERS (ANGSTROMS AND DEGREES) - BOHR = 0.5291772083 ANGSTROM
 PRIMITIVE CELL - CENTRING CODE 1/0 VOLUME=   344.438812 - DENSITY  1.466 g/cm^3
         A              B              C           ALPHA      BETA       GAMMA 
     7.49543337     8.40317101     5.46854932    90.000000  90.000000  90.000000
 *******************************************************************************
 ATOMS IN THE ASYMMETRIC UNIT   10 - ATOMS IN THE UNIT CELL:   32
     ATOM                 X/A                 Y/B                 Z/C    
 *******************************************************************************
      1 T  16 S     1.126507379052E-02  0.000000000000E+00  3.422032796519E-01
      2 F  16 S    -4.887349262095E-01  0.000000000000E+00 -3.422032796519E-01
      3 T   6 C     7.329919032214E-02  0.000000000000E+00  3.579584351816E-02
      4 F   6 C    -4.267008096779E-01  0.000000000000E+00 -3.579584351816E-02
      5 T   7 N     9.702429750842E-02  1.364569401269E-01 -8.506724299564E-02
      6 F   7 N    -4.029757024916E-01 -1.364569401269E-01  8.506724299564E-02
      7 F   7 N     9.702429750842E-02 -1.364569401269E-01 -8.506724299564E-02
      8 F   7 N    -4.029757024916E-01  1.364569401269E-01  8.506724299564E-02
      9 T  16 S     4.667334294875E-02 -5.000000000000E-01  1.264977943617E-01
     10 F  16 S    -4.533266570513E-01 -5.000000000000E-01 -1.264977943617E-01
     11 T   6 C    -9.275896113436E-02 -5.000000000000E-01  3.808575953892E-01
     12 F   6 C     4.072410388656E-01 -5.000000000000E-01 -3.808575953892E-01
     13 T   7 N    -1.477406378712E-01  3.630347367642E-01  4.802157543608E-01
     14 F   7 N     3.522593621288E-01 -3.630347367642E-01 -4.802157543608E-01
     15 F   7 N    -1.477406378712E-01 -3.630347367642E-01  4.802157543608E-01
     16 F   7 N     3.522593621288E-01  3.630347367642E-01 -4.802157543608E-01
     17 T   1 H     1.314276756884E-01  1.344978906325E-01 -2.657922531806E-01
     18 F   1 H    -3.685723243116E-01 -1.344978906325E-01  2.657922531806E-01
     19 F   1 H     1.314276756884E-01 -1.344978906325E-01 -2.657922531806E-01
     20 F   1 H    -3.685723243116E-01  1.344978906325E-01  2.657922531806E-01
     21 T   1 H     7.574687875444E-02  2.448062358584E-01 -2.301786858569E-03
     22 F   1 H    -4.242531212456E-01 -2.448062358584E-01  2.301786858569E-03
     23 F   1 H     7.574687875444E-02 -2.448062358584E-01 -2.301786858569E-03
     24 F   1 H    -4.242531212456E-01  2.448062358584E-01  2.301786858569E-03
     25 T   1 H    -2.263070767936E-01  3.661392129560E-01 -3.657980781135E-01
     26 F   1 H     2.736929232064E-01 -3.661392129560E-01  3.657980781135E-01
     27 F   1 H    -2.263070767936E-01 -3.661392129560E-01 -3.657980781135E-01
     28 F   1 H     2.736929232064E-01  3.661392129560E-01  3.657980781135E-01
     29 T   1 H    -9.854046024996E-02  2.557259716114E-01  4.187403112069E-01
     30 F   1 H     4.014595397500E-01 -2.557259716114E-01 -4.187403112069E-01
     31 F   1 H    -9.854046024996E-02 -2.557259716114E-01  4.187403112069E-01
     32 F   1 H     4.014595397500E-01  2.557259716114E-01 -4.187403112069E-01

 T = ATOM BELONGING TO THE ASYMMETRIC UNIT

 ****    4 SYMMOPS - TRANSLATORS IN FRACTIONAL UNITS
 **** MATRICES AND TRANSLATORS IN THE CRYSTALLOGRAPHIC REFERENCE FRAME
   V INV                    ROTATION MATRICES                   TRANSLATORS
   1   1  1.00  0.00  0.00  0.00  1.00  0.00  0.00  0.00  1.00  0.00  0.00  0.00
   2   2  1.00  0.00  0.00  0.00 -1.00  0.00  0.00  0.00 -1.00  0.50  0.00  0.00
   3   3  1.00  0.00  0.00  0.00 -1.00  0.00  0.00  0.00  1.00  0.00  0.00  0.00
   4   4  1.00  0.00  0.00  0.00  1.00  0.00  0.00  0.00 -1.00  0.50  0.00  0.00

 DIRECT LATTICE VECTORS CARTESIAN COMPONENTS (ANGSTROM)
          X                    Y                    Z
   0.749543337000E+01   0.000000000000E+00   0.000000000000E+00
   0.000000000000E+00   0.840317101000E+01   0.000000000000E+00
   0.000000000000E+00   0.000000000000E+00   0.546854932000E+01


 CARTESIAN COORDINATES - PRIMITIVE CELL
 *******************************************************************************
 *      ATOM          X(ANGSTROM)         Y(ANGSTROM)         Z(ANGSTROM)
 *******************************************************************************
    1    16 S     8.443661000498E-02  0.000000000000E+00  1.871355512242E+00
    2    16 S    -3.663280074995E+00  0.000000000000E+00 -1.871355512242E+00
    3     6 C     5.494091971345E-01  0.000000000000E+00  1.957513357301E-01
    4     6 C    -3.198307487865E+00  0.000000000000E+00 -1.957513357301E-01
    5     7 N     7.272391572454E-01  1.146671003388E+00 -4.651944138381E-01
    6     7 N    -3.020477527755E+00 -1.146671003388E+00  4.651944138381E-01
    7     7 N     7.272391572454E-01 -1.146671003388E+00 -4.651944138381E-01
    8     7 N    -3.020477527755E+00  1.146671003388E+00  4.651944138381E-01
    9    16 S     3.498369322275E-01  4.201585505000E+00  6.917594273382E-01
   10    16 S    -3.397879752772E+00  4.201585505000E+00 -6.917594273382E-01
   11     6 C    -6.952686126530E-01  4.201585505000E+00  2.082738544282E+00
   12     6 C     3.052448072347E+00  4.201585505000E+00 -2.082738544282E+00
   13     7 N    -1.107380107205E+00  3.050642975600E+00  2.626083536963E+00
   14     7 N     2.640336577795E+00 -3.050642975600E+00 -2.626083536963E+00
   15     7 N    -1.107380107205E+00 -3.050642975600E+00  2.626083536963E+00
   16     7 N     2.640336577795E+00  3.050642975600E+00 -2.626083536963E+00
   17     1 H     9.851073860964E-01  1.130208775469E+00 -1.453498045392E+00
   18     1 H    -2.762609298904E+00 -1.130208775469E+00  1.453498045392E+00
   19     1 H     9.851073860964E-01 -1.130208775469E+00 -1.453498045392E+00
   20     1 H    -2.762609298904E+00  1.130208775469E+00  1.453498045392E+00
   21     1 H     5.677556826894E-01  2.057148664233E+00 -1.258743496021E-02
   22     1 H    -3.179961002311E+00 -2.057148664233E+00  1.258743496021E-02
   23     1 H     5.677556826894E-01 -2.057148664233E+00 -1.258743496021E-02
   24     1 H    -3.179961002311E+00  2.057148664233E+00  1.258743496021E-02
   25     1 H    -1.696269615266E+00  3.076730419936E+00 -2.000384831325E+00
   26     1 H     2.051447069734E+00 -3.076730419936E+00  2.000384831325E+00
   27     1 H    -1.696269615266E+00 -3.076730419936E+00 -2.000384831325E+00
   28     1 H     2.051447069734E+00  3.076730419936E+00  2.000384831325E+00
   29     1 H    -7.386034540527E-01  2.148909071149E+00  2.289902044107E+00
   30     1 H     3.009113230947E+00 -2.148909071149E+00 -2.289902044107E+00
   31     1 H    -7.386034540527E-01 -2.148909071149E+00  2.289902044107E+00
   32     1 H     3.009113230947E+00  2.148909071149E+00 -2.289902044107E+00

 *******************************************************************************
 LOCAL ATOMIC FUNCTIONS BASIS SET
 *******************************************************************************
   ATOM   X(AU)   Y(AU)   Z(AU)  N. TYPE  EXPONENT  S COEF   P COEF   D/F/G COEF
 *******************************************************************************
   1 S    0.160   0.000   3.536
                                  1 S  
                                         1.040E+05 2.474E-04 0.000E+00 0.000E+00
                                         1.558E+04 1.918E-03 0.000E+00 0.000E+00
                                         3.546E+03 9.961E-03 0.000E+00 0.000E+00
                                         1.003E+03 4.039E-02 0.000E+00 0.000E+00
                                         3.249E+02 1.307E-01 0.000E+00 0.000E+00
                                  2 S  
                                         1.155E+02 1.000E+00 0.000E+00 0.000E+00
                                  3 S  
                                         4.453E+01 5.040E-01 0.000E+00 0.000E+00
                                         1.840E+01 2.307E-01 0.000E+00 0.000E+00
                                  4 S  
                                         5.510E+00 1.000E+00 0.000E+00 0.000E+00
                                  5 S  
                                         2.126E+00 1.000E+00 0.000E+00 0.000E+00
                                  6 S  
                                         4.369E-01 1.000E+00 0.000E+00 0.000E+00
                                  7 S  
                                         1.573E-01 1.000E+00 0.000E+00 0.000E+00
                           8-    10 P  
                                         6.067E+02 0.000E+00 2.323E-03 0.000E+00
                                         1.435E+02 0.000E+00 1.857E-02 0.000E+00
                                         4.575E+01 0.000E+00 8.603E-02 0.000E+00
                                         1.687E+01 0.000E+00 2.525E-01 0.000E+00
                                         6.640E+00 0.000E+00 4.463E-01 0.000E+00
                          11-    13 P  
                                         2.673E+00 0.000E+00 1.000E+00 0.000E+00
                          14-    16 P  
                                         1.000E+00 0.000E+00 1.000E+00 0.000E+00
                          17-    19 P  
                                         3.544E-01 0.000E+00 1.000E+00 0.000E+00
                          20-    22 P  
                                         1.167E-01 0.000E+00 1.000E+00 0.000E+00
                          23-    27 D  
                                         5.500E-01 0.000E+00 0.000E+00 1.000E+00
   2 S   -6.923   0.000  -3.536
   3 C    1.038   0.000   0.370
                                 55 S  
                                         8.506E+03 5.337E-04 0.000E+00 0.000E+00
                                         1.276E+03 4.125E-03 0.000E+00 0.000E+00
                                         2.903E+02 2.117E-02 0.000E+00 0.000E+00
                                         8.206E+01 8.242E-02 0.000E+00 0.000E+00
                                         2.648E+01 2.401E-01 0.000E+00 0.000E+00
                                 56 S  
                                         9.241E+00 1.000E+00 0.000E+00 0.000E+00
                                 57 S  
                                         3.364E+00 1.000E+00 0.000E+00 0.000E+00
                                 58 S  
                                         8.717E-01 1.000E+00 0.000E+00 0.000E+00
                                 59 S  
                                         3.635E-01 1.000E+00 0.000E+00 0.000E+00
                                 60 S  
                                         1.287E-01 1.000E+00 0.000E+00 0.000E+00
                          61-    63 P  
                                         3.471E+01 0.000E+00 5.330E-03 0.000E+00
                                         7.959E+00 0.000E+00 3.587E-02 0.000E+00
                                         2.379E+00 0.000E+00 1.420E-01 0.000E+00
                                         8.154E-01 0.000E+00 3.420E-01 0.000E+00
                          64-    66 P  
                                         2.895E-01 0.000E+00 1.000E+00 0.000E+00
                          67-    69 P  
                                         1.008E-01 0.000E+00 1.000E+00 0.000E+00
                          70-    74 D  
                                         8.000E-01 0.000E+00 0.000E+00 1.000E+00
   4 C   -6.044   0.000  -0.370
   5 N    1.374   2.167  -0.879
                                 95 S  
                                         1.191E+04-5.230E-04 0.000E+00 0.000E+00
                                         1.787E+03-4.043E-03 0.000E+00 0.000E+00
                                         4.066E+02-2.077E-02 0.000E+00 0.000E+00
                                         1.149E+02-8.118E-02 0.000E+00 0.000E+00
                                         3.711E+01-2.387E-01 0.000E+00 0.000E+00
                                 96 S  
                                         1.297E+01 1.000E+00 0.000E+00 0.000E+00
                                 97 S  
                                         4.730E+00 1.000E+00 0.000E+00 0.000E+00
                                 98 S  
                                         1.253E+00 1.000E+00 0.000E+00 0.000E+00
                                 99 S  
                                         5.126E-01 1.000E+00 0.000E+00 0.000E+00
                                100 S  
                                         1.794E-01 1.000E+00 0.000E+00 0.000E+00
                         101-   103 P  
                                         4.922E+01 0.000E+00 5.553E-03 0.000E+00
                                         1.135E+01 0.000E+00 3.805E-02 0.000E+00
                                         3.429E+00 0.000E+00 1.494E-01 0.000E+00
                                         1.180E+00 0.000E+00 3.490E-01 0.000E+00
                         104-   106 P  
                                         4.173E-01 0.000E+00 1.000E+00 0.000E+00
                         107-   109 P  
                                         1.430E-01 0.000E+00 1.000E+00 0.000E+00
                         110-   114 D  
                                         1.000E+00 0.000E+00 0.000E+00 1.000E+00
   6 N   -5.708  -2.167   0.879
   7 N    1.374  -2.167  -0.879
   8 N   -5.708   2.167   0.879
   9 S    0.661   7.940   1.307
  10 S   -6.421   7.940  -1.307
  11 C   -1.314   7.940   3.936
  12 C    5.768   7.940  -3.936
  13 N   -2.093   5.765   4.963
  14 N    4.990  -5.765  -4.963
  15 N   -2.093  -5.765   4.963
  16 N    4.990   5.765  -4.963
  17 H    1.862   2.136  -2.747
                                349 S  
                                         3.406E+01 6.025E-03 0.000E+00 0.000E+00
                                         5.124E+00 4.502E-02 0.000E+00 0.000E+00
                                         1.165E+00 2.019E-01 0.000E+00 0.000E+00
                                350 S  
                                         3.272E-01 1.000E+00 0.000E+00 0.000E+00
                                351 S  
                                         1.031E-01 1.000E+00 0.000E+00 0.000E+00
                         352-   354 P  
                                         8.000E-01 0.000E+00 1.000E+00 0.000E+00
  18 H   -5.221  -2.136   2.747
  19 H    1.862  -2.136  -2.747
  20 H   -5.221   2.136   2.747
  21 H    1.073   3.887  -0.024
  22 H   -6.009  -3.887   0.024
  23 H    1.073  -3.887  -0.024
  24 H   -6.009   3.887   0.024
  25 H   -3.205   5.814  -3.780
  26 H    3.877  -5.814   3.780
  27 H   -3.205  -5.814  -3.780
  28 H    3.877   5.814   3.780
  29 H   -1.396   4.061   4.327
  30 H    5.686  -4.061  -4.327
  31 H   -1.396  -4.061   4.327
  32 H    5.686   4.061  -4.327
 INFORMATION **** SET_MPP **** PCRYSTAL CALCULATION
 INFORMATION **** READM2 **** NEW DEFAULT: FOCK/KS MATRIX MIXING SET TO 30 %
 INFORMATION **** READM2 **** NEW DEFAULT: FULL DIRECT SCF MODE
 INFORMATION **** READM2 **** NEW DEFAULT: COULOMB BIPOLAR BUFFER SET TO 32 Mb
 INFORMATION **** READM2 **** NEW DEFAULT: EXCHANGE BIPOLAR BUFFER SET TO 32 Mb

 *******************************************************************************
 NEW DEFAULT: DFT INTEGRATION GRID INCREASED TO XLGRID
 NEW DEFAULT: DIIS ACCELERATOR ACTIVE
 USE KEYWORD NODIIS TO TURN IT OFF
 *******************************************************************************

 INFORMATION **** DFTD3_INPUT **** PERFORM LATEST DISPERSION CORRECTION DFT-D3(BJ) WITH AUTOMATIC PARAMETER SETUP
 PLEASE CITE:
 (1) DFT-D3 Reference
  S. Grimme, J. Antony, S. Ehrlich, and H. Krieg, J. Chem. Phys. 132 (2010), 154104
 (2) BJ-Damping Reference
  S. Grimme, S. Ehrlich, and L. Goerigk, J. Comput. Chem. 32 (2011), 1456-1465
 (3) General DFT-D Review
  S. Grimme, A. Hansen, J. G. Brandenburg, and C. Bannwarth,
  Chem. Rev. 116 (2016), 5105-5154

 INFORMATION **** TOLINTEG **** COULOMB AND EXCHANGE SERIES TOLERANCES MODIFIED
 INFORMATION **** TOLDEE **** SCF TOL ON TOTAL ENERGY SET TO           9
 INFORMATION **** MAXCYCLE **** MAX NUMBER OF SCF CYCLES SET TO         200
 WARNING **** READM2 **** PROBABLE LOSS IN FREQCALC ACCURACY; SCF TOL LT          10
 *******************************************************************************
 N. OF ATOMS PER CELL        32  COULOMB OVERLAP TOL         (T1) 10**   -8
 NUMBER OF SHELLS           236  COULOMB PENETRATION TOL     (T2) 10**   -8
 NUMBER OF AO               444  EXCHANGE OVERLAP TOL        (T3) 10**   20
 N. OF ELECTRONS PER CELL   160  EXCHANGE PSEUDO OVP (F(G))  (T4) 10**   20
 CORE ELECTRONS PER CELL     64  EXCHANGE PSEUDO OVP (P(G))  (T5) 10**   20
 N. OF SYMMETRY OPERATORS     4  POLE ORDER IN MONO ZONE                  4
 *******************************************************************************
 TYPE OF CALCULATION :  RESTRICTED CLOSED SHELL
 KOHN-SHAM HAMILTONIAN

 (EXCHANGE)[CORRELATION] FUNCTIONAL:(PERDEW-BURKE-ERNZERHOF)[PERDEW-BURKE-ERNZERHOF]


 CAPPA:IS1  8;IS2  8;IS3  8; K PTS MONK NET 125; SYMMOPS:K SPACE   8;G SPACE   4

 *******************************************************************************
 MAX NUMBER OF SCF CYCLES     200  CONVERGENCE ON DELTAP        10**-19
 WEIGHT OF F(I) IN F(I+1)      30% CONVERGENCE ON ENERGY        10**- 9
 SHRINK. FACT.(MONKH.)    8  8  8  NUMBER OF K POINTS IN THE IBZ    125
 SHRINKING FACTOR(GILAT NET)    8  NUMBER OF K POINTS(GILAT NET)    125
 *******************************************************************************
 *** K POINTS COORDINATES (OBLIQUE COORDINATES IN UNITS OF IS =  8)
   1-R(  0  0  0)   2-C(  1  0  0)   3-C(  2  0  0)   4-C(  3  0  0)
   5-R(  4  0  0)   6-C(  0  1  0)   7-C(  1  1  0)   8-C(  2  1  0)
   9-C(  3  1  0)  10-C(  4  1  0)  11-C(  0  2  0)  12-C(  1  2  0)
  13-C(  2  2  0)  14-C(  3  2  0)  15-C(  4  2  0)  16-C(  0  3  0)
  17-C(  1  3  0)  18-C(  2  3  0)  19-C(  3  3  0)  20-C(  4  3  0)
  21-R(  0  4  0)  22-C(  1  4  0)  23-C(  2  4  0)  24-C(  3  4  0)
  25-R(  4  4  0)  26-C(  0  0  1)  27-C(  1  0  1)  28-C(  2  0  1)
  29-C(  3  0  1)  30-C(  4  0  1)  31-C(  0  1  1)  32-C(  1  1  1)
  33-C(  2  1  1)  34-C(  3  1  1)  35-C(  4  1  1)  36-C(  0  2  1)
  37-C(  1  2  1)  38-C(  2  2  1)  39-C(  3  2  1)  40-C(  4  2  1)
  41-C(  0  3  1)  42-C(  1  3  1)  43-C(  2  3  1)  44-C(  3  3  1)
  45-C(  4  3  1)  46-C(  0  4  1)  47-C(  1  4  1)  48-C(  2  4  1)
  49-C(  3  4  1)  50-C(  4  4  1)  51-C(  0  0  2)  52-C(  1  0  2)
  53-C(  2  0  2)  54-C(  3  0  2)  55-C(  4  0  2)  56-C(  0  1  2)
  57-C(  1  1  2)  58-C(  2  1  2)  59-C(  3  1  2)  60-C(  4  1  2)
  61-C(  0  2  2)  62-C(  1  2  2)  63-C(  2  2  2)  64-C(  3  2  2)
  65-C(  4  2  2)  66-C(  0  3  2)  67-C(  1  3  2)  68-C(  2  3  2)
  69-C(  3  3  2)  70-C(  4  3  2)  71-C(  0  4  2)  72-C(  1  4  2)
  73-C(  2  4  2)  74-C(  3  4  2)  75-C(  4  4  2)  76-C(  0  0  3)
  77-C(  1  0  3)  78-C(  2  0  3)  79-C(  3  0  3)  80-C(  4  0  3)
  81-C(  0  1  3)  82-C(  1  1  3)  83-C(  2  1  3)  84-C(  3  1  3)
  85-C(  4  1  3)  86-C(  0  2  3)  87-C(  1  2  3)  88-C(  2  2  3)
  89-C(  3  2  3)  90-C(  4  2  3)  91-C(  0  3  3)  92-C(  1  3  3)
  93-C(  2  3  3)  94-C(  3  3  3)  95-C(  4  3  3)  96-C(  0  4  3)
  97-C(  1  4  3)  98-C(  2  4  3)  99-C(  3  4  3) 100-C(  4  4  3)
 101-R(  0  0  4) 102-C(  1  0  4) 103-C(  2  0  4) 104-C(  3  0  4)
 105-R(  4  0  4) 106-C(  0  1  4) 107-C(  1  1  4) 108-C(  2  1  4)
 109-C(  3  1  4) 110-C(  4  1  4) 111-C(  0  2  4) 112-C(  1  2  4)
 113-C(  2  2  4) 114-C(  3  2  4) 115-C(  4  2  4) 116-C(  0  3  4)
 117-C(  1  3  4) 118-C(  2  3  4) 119-C(  3  3  4) 120-C(  4  3  4)
 121-R(  0  4  4) 122-C(  1  4  4) 123-C(  2  4  4) 124-C(  3  4  4)
 125-R(  4  4  4)

 DIRECT LATTICE VECTORS COMPON. (A.U.)     RECIP. LATTICE VECTORS COMPON. (A.U.) 
        X            Y            Z              X            Y            Z
   14.1643163    0.0000000    0.0000000      0.4435926    0.0000000    0.0000000
    0.0000000   15.8796919    0.0000000      0.0000000    0.3956743    0.0000000
    0.0000000    0.0000000   10.3340606      0.0000000    0.0000000    0.6080074

 DISK SPACE FOR EIGENVECTORS (FTN 10)    47706912 REALS

 SYMMETRY ADAPTION OF THE BLOCH FUNCTIONS ENABLED
 TTTTTTTTTTTTTTTTTTTTTTTTTTTTTT gordsh1     TELAPSE        0.35 TCPU        0.26

 MATRIX SIZE: P(G)  365380, F(G)  183272, P(G) IRR   50996, F(G) IRR   50996
 MAX G-VECTOR INDEX FOR 1- AND 2-ELECTRON INTEGRALS  77

 TTTTTTTTTTTTTTTTTTTTTTTTTTTTTT INPUT       TELAPSE        0.36 TCPU        0.27

 NEIGHBORS OF THE NON-EQUIVALENT ATOMS

 N = NUMBER OF NEIGHBORS AT DISTANCE R
    ATOM  N     R/ANG      R/AU   NEIGHBORS (ATOM LABELS AND CELL INDICES)
   1 S    1     1.7389     3.2861    3 C    0 0 0
   1 S    2     2.3389     4.4199   29 H    0 0 0   31 H    0 0 0
   1 S    2     2.5853     4.8856   17 H    0 0 1   19 H    0 0 1
   1 S    2     2.6810     5.0663    5 N    0 0 0    7 N    0 0 0
   1 S    2     2.8310     5.3499   21 H    0 0 0   23 H    0 0 0
   1 S    2     3.0915     5.8422   18 H    0 0 0   20 H    0 0 0

   3 C    2     1.3354     2.5236    5 N    0 0 0    7 N    0 0 0
   3 C    1     1.7389     3.2861    1 S    0 0 0
   3 C    2     2.0463     3.8669   17 H    0 0 0   19 H    0 0 0
   3 C    2     2.0678     3.9075   21 H    0 0 0   23 H    0 0 0
   3 C    2     3.2653     6.1705   29 H    0 0 0   31 H    0 0 0
   3 C    2     3.7187     7.0273   18 H    0 0 0   20 H    0 0 0

   5 N    1     1.0215     1.9304   17 H    0 0 0
   5 N    1     1.0292     1.9449   21 H    0 0 0
   5 N    1     1.3354     2.5236    3 C    0 0 0
   5 N    1     2.2933     4.3338    7 N    0 0 0
   5 N    1     2.4955     4.7158   19 H    0 0 0
   5 N    1     2.6810     5.0663    1 S    0 0 0

   9 S    1     1.7398     3.2878   11 C    0 0 0
   9 S    2     2.2676     4.2852   21 H    0 0 0   23 H    0 1 0
   9 S    2     2.4235     4.5797   26 H    0 1 0   28 H    0 0 0
   9 S    2     2.6814     5.0671   13 N    0 0 0   15 N    0 1 0
   9 S    2     2.8200     5.3290   29 H    0 0 0   31 H    0 1 0
   9 S    2     3.2884     6.2141    5 N    0 0 0    7 N    0 1 0

  11 C    2     1.3378     2.5281   13 N    0 0 0   15 N    0 1 0
  11 C    1     1.7398     3.2878    9 S    0 0 0
  11 C    2     2.0461     3.8667   25 H    0 0 1   27 H    0 1 1
  11 C    2     2.0636     3.8996   29 H    0 0 0   31 H    0 1 0
  11 C    2     2.9693     5.6111   26 H    0 1 0   28 H    0 0 0
  11 C    2     3.2533     6.1479   21 H    0 0 0   23 H    0 1 0

  13 N    1     1.0279     1.9424   25 H    0 0 1
  13 N    1     1.0306     1.9476   29 H    0 0 0
  13 N    1     1.3378     2.5281   11 C    0 0 0
  13 N    1     2.3019     4.3499   15 N    0 1 0
  13 N    1     2.4970     4.7187   27 H    0 1 1
  13 N    1     2.6814     5.0671    9 S    0 0 0

  17 H    1     1.0215     1.9304    5 N    0 0 0
  17 H    1     1.7634     3.3324   21 H    0 0 0
  17 H    1     2.0463     3.8669    3 C    0 0 0
  17 H    1     2.2604     4.2716   19 H    0 0 0
  17 H    1     2.4154     4.5644   32 H    0 0 0
  17 H    1     2.4955     4.7158    7 N    0 0 0

  21 H    1     1.0292     1.9449    5 N    0 0 0
  21 H    1     1.7634     3.3324   17 H    0 0 0
  21 H    1     2.0678     3.9075    3 C    0 0 0
  21 H    1     2.2676     4.2852    9 S    0 0 0
  21 H    1     2.6489     5.0056   29 H    0 0 0
  21 H    1     2.7005     5.1033   28 H    0 0 0

  25 H    1     1.0279     1.9424   13 N    0 0-1
  25 H    1     1.7794     3.3626   29 H    0 0-1
  25 H    1     2.0461     3.8667   11 C    0 0-1
  25 H    1     2.2497     4.2513   27 H    0 1 0
  25 H    1     2.4235     4.5797   10 S    0 0 0
  25 H    1     2.4970     4.7187   15 N    0 1-1

  29 H    1     1.0306     1.9476   13 N    0 0 0
  29 H    1     1.7794     3.3626   25 H    0 0 1
  29 H    1     2.0636     3.8996   11 C    0 0 0
  29 H    1     2.3389     4.4199    1 S    0 0 0
  29 H    1     2.4154     4.5644   20 H    0 0 0
  29 H    1     2.6429     4.9944   17 H    0 0 1


 SYMMETRY ALLOWED INTERNAL DEGREE(S) OF FREEDOM:  25
 TTTTTTTTTTTTTTTTTTTTTTTTTTTTTT SYMM        TELAPSE        0.47 TCPU        0.38
 TTTTTTTTTTTTTTTTTTTTTTTTTTTTTT INT_SCREEN  TELAPSE        0.50 TCPU        0.40

 DFT PARAMETERS

     ATOM       ELECTRONS   NET CHARGE   R(ANGSTROM)
   1  16  S      16.0000      0.0000     1.04000000
   3   6  C       6.0000      0.0000     0.77000000
   5   7  N       7.0000      0.0000     0.74000000
  17   1  H       1.0000      0.0000     1.11000000

 SIZE OF GRID=     399573
 TTTTTTTTTTTTTTTTTTTTTTTTTTTTTT MAKE_GRID2  TELAPSE        3.66 TCPU        3.54
 BECKE WEIGHT FUNCTION
 RADSAFE =     2.00
 TOLERANCES - DENSITY:10**- 6; POTENTIAL:10**- 9; GRID WGT:10**-14

 RADIAL INTEGRATION  - INTERVALS (POINTS,UPPER LIMIT):            1( 99,  4.0*R)

 ANGULAR INTEGRATION - INTERVALS (ACCURACY LEVEL [N. POINTS] UPPER LIMIT):
  1(  6[ 146]   0.2)  2( 11[ 302]   0.5)  3( 14[ 590]   0.9)  4( 18[1454]   3.5)
  5( 14[ 590]9999.0)
 TTTTTTTTTTTTTTTTTTTTTTTTTTTTTT INT_CALC    TELAPSE        3.69 TCPU        3.57
 EEEEEEEEEE INT_CALC TERMINATION  DATE 17 05 2023 TIME 14:46:00.3

 *******************************************************************************
 Thiourea PBE-D3 OPTGEOM P21ma                                                   
 CRYSTAL - SCF - TYPE OF CALCULATION :  RESTRICTED CLOSED SHELL
 *******************************************************************************

 CAPPA:IS1  8;IS2  8;IS3  8; K PTS MONK NET 125; SYMMOPS:K SPACE   8;G SPACE   4

 TTTTTTTTTTTTTTTTTTTTTTTTTTTTTT SDIK        TELAPSE        3.92 TCPU        3.81

 AAAAAAAAAAAAAAAAAAAAAAAAAAAAAAAAAAAAAAAAAAAAAAAAAAAAAAAAAAAAAAAAAAAAAAAAAAAAAAA
         ATOMIC WAVEFUNCTION(S)


 NUCLEAR CHARGE 16.0  SYMMETRY SPECIES            S    P
 N. ELECTRONS   16.0  NUMBER OF PRIMITIVE GTOS   12    9
                      NUMBER OF CONTRACTED GTOS   7    5
                      NUMBER OF CLOSED SHELLS     3    1
                      OPEN SHELL OCCUPATION       0    4

  ZNUC  SCFIT    TOTAL HF ENERGY   KINETIC ENERGY   VIRIAL THEOREM ACCURACY
  16.0    25    -3.974966170E+02  3.974963905E+02 -2.000000570E+00  2.2E-06

 NUCLEAR CHARGE  6.0  SYMMETRY SPECIES            S    P
 N. ELECTRONS    6.0  NUMBER OF PRIMITIVE GTOS   10    6
                      NUMBER OF CONTRACTED GTOS   6    3
                      NUMBER OF CLOSED SHELLS     2    0
                      OPEN SHELL OCCUPATION       0    2

  ZNUC  SCFIT    TOTAL HF ENERGY   KINETIC ENERGY   VIRIAL THEOREM ACCURACY
   6.0    20    -3.768729062E+01  3.768729431E+01 -1.999999902E+00  4.0E-06

 NUCLEAR CHARGE  7.0  SYMMETRY SPECIES            S    P
 N. ELECTRONS    7.0  NUMBER OF PRIMITIVE GTOS   10    6
                      NUMBER OF CONTRACTED GTOS   6    3
                      NUMBER OF CLOSED SHELLS     2    0
                      OPEN SHELL OCCUPATION       0    3

  ZNUC  SCFIT    TOTAL HF ENERGY   KINETIC ENERGY   VIRIAL THEOREM ACCURACY
   7.0    22    -5.439889040E+01  5.439888250E+01 -2.000000145E+00  4.2E-07

 NUCLEAR CHARGE  1.0  SYMMETRY SPECIES            S
 N. ELECTRONS    1.0  NUMBER OF PRIMITIVE GTOS    5
                      NUMBER OF CONTRACTED GTOS   3
                      NUMBER OF CLOSED SHELLS     0
                      OPEN SHELL OCCUPATION       1

  ZNUC  SCFIT    TOTAL HF ENERGY   KINETIC ENERGY   VIRIAL THEOREM ACCURACY
   1.0     1    -4.998098322E-01  4.998098316E-01 -2.000000001E+00  1.7E-16

 AAAAAAAAAAAAAAAAAAAAAAAAAAAAAAAAAAAAAAAAAAAAAAAAAAAAAAAAAAAAAAAAAAAAAAAAAAAAAAA

 TTTTTTTTTTTTTTTTTTTTTTTTTTTTTT MOQGAD      TELAPSE        3.93 TCPU        3.81
 TTTTTTTTTTTTTTTTTTTTTTTTTTTTTT SHELLXN     TELAPSE        8.47 TCPU        8.35
 TTTTTTTTTTTTTTTTTTTTTTTTTTTTTT MONMO3      TELAPSE        8.52 TCPU        8.41
 NUMERICALLY INTEGRATED DENSITY    160.0000550785
 TTTTTTTTTTTTTTTTTTTTTTTTTTTTTT NUMDFT      TELAPSE        8.90 TCPU        8.79
 CYC   0 ETOT(AU) -2.194651241980E+03 DETOT -2.19E+03 tst  0.00E+00 PX  1.00E+00
 TTTTTTTTTTTTTTTTTTTTTTTTTTTTTT DIIS        TELAPSE        9.00 TCPU        8.89
 TTTTTTTTTTTTTTTTTTTTTTTTTTTTTT FDIK        TELAPSE       11.32 TCPU       11.21
 INSULATING STATE
 TOP OF VALENCE BANDS -    BAND     80; K  121; EIG -2.6593655E-01 AU
 TOP OF VALENCE BANDS -    BAND     80; K    1; EIG -2.7378133E-01 AU
 BOTTOM OF VIRTUAL BANDS - BAND     81; K   76; EIG -1.2878622E-01 AU
 INDIRECT ENERGY BAND GAP:   3.7321 eV
 BOTTOM OF VIRTUAL BANDS - BAND     81; K    1; EIG -1.2505643E-01 AU
 TTTTTTTTTTTTTTTTTTTTTTTTTTTTTT PDIG        TELAPSE       11.38 TCPU       11.27
 TTTTTTTTTTTTTTTTTTTTTTTTTTTTTT MOQGAD      TELAPSE       11.39 TCPU       11.27
 TTTTTTTTTTTTTTTTTTTTTTTTTTTTTT SHELLXN     TELAPSE       16.37 TCPU       16.26
 TTTTTTTTTTTTTTTTTTTTTTTTTTTTTT MONMO3      TELAPSE       16.43 TCPU       16.32
 NUMERICALLY INTEGRATED DENSITY    160.0000331805
 TTTTTTTTTTTTTTTTTTTTTTTTTTTTTT NUMDFT      TELAPSE       16.85 TCPU       16.73
 CYC   1 ETOT(AU) -2.191561622990E+03 DETOT  3.09E+00 tst  0.00E+00 PX  1.00E+00
 TTTTTTTTTTTTTTTTTTTTTTTTTTTTTT DIIS        TELAPSE       16.87 TCPU       16.76
 DIIS TEST: 0.28805E+01 AT SCF   CYCLE   1 - MIX   30 %
 TTTTTTTTTTTTTTTTTTTTTTTTTTTTTT FDIK        TELAPSE       17.58 TCPU       17.47
 INSULATING STATE
 TOP OF VALENCE BANDS -    BAND     80; K    1; EIG -1.7696323E-01 AU
 BOTTOM OF VIRTUAL BANDS - BAND     81; K  101; EIG -5.4308246E-02 AU
 INDIRECT ENERGY BAND GAP:   3.3376 eV
 BOTTOM OF VIRTUAL BANDS - BAND     81; K    1; EIG -3.5574921E-02 AU
 TTTTTTTTTTTTTTTTTTTTTTTTTTTTTT PDIG        TELAPSE       17.64 TCPU       17.53
 TTTTTTTTTTTTTTTTTTTTTTTTTTTTTT MOQGAD      TELAPSE       17.65 TCPU       17.53
 TTTTTTTTTTTTTTTTTTTTTTTTTTTTTT SHELLXN     TELAPSE       22.62 TCPU       22.51
 TTTTTTTTTTTTTTTTTTTTTTTTTTTTTT MONMO3      TELAPSE       22.68 TCPU       22.56
 NUMERICALLY INTEGRATED DENSITY    160.0000535882
 TTTTTTTTTTTTTTTTTTTTTTTTTTTTTT NUMDFT      TELAPSE       23.05 TCPU       22.93
 CYC   2 ETOT(AU) -2.191643067469E+03 DETOT -8.14E-02 tst  4.44E-03 PX  1.33E-01
 TTTTTTTTTTTTTTTTTTTTTTTTTTTTTT DIIS        TELAPSE       23.07 TCPU       22.96
 DIIS TEST: 0.23059E+01 AT SCF   CYCLE   2 - DIIS ACTIVE - HISTORY:     2 CYCLES
 TTTTTTTTTTTTTTTTTTTTTTTTTTTTTT FDIK        TELAPSE       23.75 TCPU       23.64
 INSULATING STATE
 TOP OF VALENCE BANDS -    BAND     80; K  121; EIG -1.6679712E-01 AU
 TOP OF VALENCE BANDS -    BAND     80; K    1; EIG -1.8181387E-01 AU
 BOTTOM OF VIRTUAL BANDS - BAND     81; K  101; EIG -5.5364301E-02 AU
 INDIRECT ENERGY BAND GAP:   3.0322 eV
 BOTTOM OF VIRTUAL BANDS - BAND     81; K    1; EIG -4.6626290E-02 AU
 TTTTTTTTTTTTTTTTTTTTTTTTTTTTTT PDIG        TELAPSE       23.81 TCPU       23.70
 TTTTTTTTTTTTTTTTTTTTTTTTTTTTTT MOQGAD      TELAPSE       23.82 TCPU       23.70
 TTTTTTTTTTTTTTTTTTTTTTTTTTTTTT SHELLXN     TELAPSE       28.79 TCPU       28.68
 TTTTTTTTTTTTTTTTTTTTTTTTTTTTTT MONMO3      TELAPSE       28.85 TCPU       28.73
 NUMERICALLY INTEGRATED DENSITY    160.0000484001
 TTTTTTTTTTTTTTTTTTTTTTTTTTTTTT NUMDFT      TELAPSE       29.18 TCPU       29.06
 CYC   3 ETOT(AU) -2.191877318144E+03 DETOT -2.34E-01 tst  2.48E-03 PX  6.34E-02
 TTTTTTTTTTTTTTTTTTTTTTTTTTTTTT DIIS        TELAPSE       29.20 TCPU       29.09
 DIIS TEST: 0.12465E+00 AT SCF   CYCLE   3 - DIIS ACTIVE - HISTORY:     3 CYCLES
 TTTTTTTTTTTTTTTTTTTTTTTTTTTTTT FDIK        TELAPSE       29.83 TCPU       29.72
 INSULATING STATE
 TOP OF VALENCE BANDS -    BAND     80; K  121; EIG -1.8783540E-01 AU
 TOP OF VALENCE BANDS -    BAND     80; K    1; EIG -2.0468566E-01 AU
 BOTTOM OF VIRTUAL BANDS - BAND     81; K  101; EIG -6.3621944E-02 AU
 INDIRECT ENERGY BAND GAP:   3.3800 eV
 BOTTOM OF VIRTUAL BANDS - BAND     81; K    1; EIG -5.2952007E-02 AU
 TTTTTTTTTTTTTTTTTTTTTTTTTTTTTT PDIG        TELAPSE       29.89 TCPU       29.78
 TTTTTTTTTTTTTTTTTTTTTTTTTTTTTT MOQGAD      TELAPSE       29.89 TCPU       29.78
 TTTTTTTTTTTTTTTTTTTTTTTTTTTTTT SHELLXN     TELAPSE       34.89 TCPU       34.77
 TTTTTTTTTTTTTTTTTTTTTTTTTTTTTT MONMO3      TELAPSE       34.94 TCPU       34.83
 NUMERICALLY INTEGRATED DENSITY    160.0000463828
 TTTTTTTTTTTTTTTTTTTTTTTTTTTTTT NUMDFT      TELAPSE       35.36 TCPU       35.24
 CYC   4 ETOT(AU) -2.191905395060E+03 DETOT -2.81E-02 tst  3.06E-04 PX  5.02E-02
 TTTTTTTTTTTTTTTTTTTTTTTTTTTTTT DIIS        TELAPSE       35.38 TCPU       35.27
 DIIS TEST: 0.21887E-02 AT SCF   CYCLE   4 - DIIS ACTIVE - HISTORY:     4 CYCLES
 TTTTTTTTTTTTTTTTTTTTTTTTTTTTTT FDIK        TELAPSE       36.02 TCPU       35.91
 INSULATING STATE
 TOP OF VALENCE BANDS -    BAND     80; K  121; EIG -1.8764710E-01 AU
 TOP OF VALENCE BANDS -    BAND     80; K    1; EIG -2.0439006E-01 AU
 BOTTOM OF VIRTUAL BANDS - BAND     81; K  101; EIG -6.6142970E-02 AU
 INDIRECT ENERGY BAND GAP:   3.3063 eV
 BOTTOM OF VIRTUAL BANDS - BAND     81; K    1; EIG -5.5047167E-02 AU
 TTTTTTTTTTTTTTTTTTTTTTTTTTTTTT PDIG        TELAPSE       36.08 TCPU       35.97
 TTTTTTTTTTTTTTTTTTTTTTTTTTTTTT MOQGAD      TELAPSE       36.09 TCPU       35.97
 TTTTTTTTTTTTTTTTTTTTTTTTTTTTTT SHELLXN     TELAPSE       41.06 TCPU       40.94
 TTTTTTTTTTTTTTTTTTTTTTTTTTTTTT MONMO3      TELAPSE       41.11 TCPU       41.00
 NUMERICALLY INTEGRATED DENSITY    160.0000463208
 TTTTTTTTTTTTTTTTTTTTTTTTTTTTTT NUMDFT      TELAPSE       41.53 TCPU       41.42
 CYC   5 ETOT(AU) -2.191905573705E+03 DETOT -1.79E-04 tst  6.29E-06 PX  4.63E-03
 TTTTTTTTTTTTTTTTTTTTTTTTTTTTTT DIIS        TELAPSE       41.55 TCPU       41.44
 DIIS TEST: 0.86235E-03 AT SCF   CYCLE   5 - DIIS ACTIVE - HISTORY:     5 CYCLES
 TTTTTTTTTTTTTTTTTTTTTTTTTTTTTT FDIK        TELAPSE       42.11 TCPU       42.00
 INSULATING STATE
 TOP OF VALENCE BANDS -    BAND     80; K  121; EIG -1.8830950E-01 AU
 TOP OF VALENCE BANDS -    BAND     80; K    1; EIG -2.0533366E-01 AU
 BOTTOM OF VIRTUAL BANDS - BAND     81; K  101; EIG -6.5095222E-02 AU
 INDIRECT ENERGY BAND GAP:   3.3528 eV
 BOTTOM OF VIRTUAL BANDS - BAND     81; K    1; EIG -5.4607968E-02 AU
 TTTTTTTTTTTTTTTTTTTTTTTTTTTTTT PDIG        TELAPSE       42.17 TCPU       42.06
 TTTTTTTTTTTTTTTTTTTTTTTTTTTTTT MOQGAD      TELAPSE       42.18 TCPU       42.06
 TTTTTTTTTTTTTTTTTTTTTTTTTTTTTT SHELLXN     TELAPSE       47.16 TCPU       47.05
 TTTTTTTTTTTTTTTTTTTTTTTTTTTTTT MONMO3      TELAPSE       47.22 TCPU       47.10
 NUMERICALLY INTEGRATED DENSITY    160.0000462416
 TTTTTTTTTTTTTTTTTTTTTTTTTTTTTT NUMDFT      TELAPSE       47.63 TCPU       47.52
 CYC   6 ETOT(AU) -2.191905647679E+03 DETOT -7.40E-05 tst  3.95E-06 PX  3.42E-03
 TTTTTTTTTTTTTTTTTTTTTTTTTTTTTT DIIS        TELAPSE       47.66 TCPU       47.54
 DIIS TEST: 0.40075E-03 AT SCF   CYCLE   6 - DIIS ACTIVE - HISTORY:     6 CYCLES
 TTTTTTTTTTTTTTTTTTTTTTTTTTTTTT FDIK        TELAPSE       48.25 TCPU       48.14
 INSULATING STATE
 TOP OF VALENCE BANDS -    BAND     80; K  121; EIG -1.8819662E-01 AU
 TOP OF VALENCE BANDS -    BAND     80; K    1; EIG -2.0498819E-01 AU
 BOTTOM OF VIRTUAL BANDS - BAND     81; K  101; EIG -6.5508487E-02 AU
 INDIRECT ENERGY BAND GAP:   3.3385 eV
 BOTTOM OF VIRTUAL BANDS - BAND     81; K    1; EIG -5.4763040E-02 AU
 TTTTTTTTTTTTTTTTTTTTTTTTTTTTTT PDIG        TELAPSE       48.31 TCPU       48.20
 TTTTTTTTTTTTTTTTTTTTTTTTTTTTTT MOQGAD      TELAPSE       48.32 TCPU       48.20
 TTTTTTTTTTTTTTTTTTTTTTTTTTTTTT SHELLXN     TELAPSE       53.29 TCPU       53.17
 TTTTTTTTTTTTTTTTTTTTTTTTTTTTTT MONMO3      TELAPSE       53.34 TCPU       53.23
 NUMERICALLY INTEGRATED DENSITY    160.0000462561
 TTTTTTTTTTTTTTTTTTTTTTTTTTTTTT NUMDFT      TELAPSE       53.67 TCPU       53.55
 CYC   7 ETOT(AU) -2.191905698461E+03 DETOT -5.08E-05 tst  8.00E-07 PX  1.57E-03
 TTTTTTTTTTTTTTTTTTTTTTTTTTTTTT DIIS        TELAPSE       53.69 TCPU       53.58
 DIIS TEST: 0.12182E-04 AT SCF   CYCLE   7 - DIIS ACTIVE - HISTORY:     7 CYCLES
 TTTTTTTTTTTTTTTTTTTTTTTTTTTTTT FDIK        TELAPSE       54.26 TCPU       54.14
 INSULATING STATE
 TOP OF VALENCE BANDS -    BAND     80; K  121; EIG -1.8811584E-01 AU
 TOP OF VALENCE BANDS -    BAND     80; K    1; EIG -2.0503793E-01 AU
 BOTTOM OF VIRTUAL BANDS - BAND     81; K  101; EIG -6.5504990E-02 AU
 INDIRECT ENERGY BAND GAP:   3.3364 eV
 BOTTOM OF VIRTUAL BANDS - BAND     81; K    1; EIG -5.4766689E-02 AU
 TTTTTTTTTTTTTTTTTTTTTTTTTTTTTT PDIG        TELAPSE       54.31 TCPU       54.20
 TTTTTTTTTTTTTTTTTTTTTTTTTTTTTT MOQGAD      TELAPSE       54.32 TCPU       54.21
 TTTTTTTTTTTTTTTTTTTTTTTTTTTTTT SHELLXN     TELAPSE       59.31 TCPU       59.19
 TTTTTTTTTTTTTTTTTTTTTTTTTTTTTT MONMO3      TELAPSE       59.36 TCPU       59.25
 NUMERICALLY INTEGRATED DENSITY    160.0000462652
 TTTTTTTTTTTTTTTTTTTTTTTTTTTTTT NUMDFT      TELAPSE       59.73 TCPU       59.62
 CYC   8 ETOT(AU) -2.191905699874E+03 DETOT -1.41E-06 tst  1.70E-08 PX  5.52E-04
 TTTTTTTTTTTTTTTTTTTTTTTTTTTTTT DIIS        TELAPSE       59.76 TCPU       59.64
 DIIS TEST: 0.34839E-05 AT SCF   CYCLE   8 - DIIS ACTIVE - HISTORY:     8 CYCLES
 TTTTTTTTTTTTTTTTTTTTTTTTTTTTTT FDIK        TELAPSE       60.27 TCPU       60.16
 INSULATING STATE
 TOP OF VALENCE BANDS -    BAND     80; K  121; EIG -1.8820655E-01 AU
 TOP OF VALENCE BANDS -    BAND     80; K    1; EIG -2.0499741E-01 AU
 BOTTOM OF VIRTUAL BANDS - BAND     81; K  101; EIG -6.5507868E-02 AU
 INDIRECT ENERGY BAND GAP:   3.3388 eV
 BOTTOM OF VIRTUAL BANDS - BAND     81; K    1; EIG -5.4784470E-02 AU
 TTTTTTTTTTTTTTTTTTTTTTTTTTTTTT PDIG        TELAPSE       60.33 TCPU       60.22
 TTTTTTTTTTTTTTTTTTTTTTTTTTTTTT MOQGAD      TELAPSE       60.34 TCPU       60.23
 TTTTTTTTTTTTTTTTTTTTTTTTTTTTTT SHELLXN     TELAPSE       65.31 TCPU       65.20
 TTTTTTTTTTTTTTTTTTTTTTTTTTTTTT MONMO3      TELAPSE       65.37 TCPU       65.25
 NUMERICALLY INTEGRATED DENSITY    160.0000462545
 TTTTTTTTTTTTTTTTTTTTTTTTTTTTTT NUMDFT      TELAPSE       65.79 TCPU       65.67
 CYC   9 ETOT(AU) -2.191905699828E+03 DETOT  4.67E-08 tst  7.27E-09 PX  2.52E-04
 TTTTTTTTTTTTTTTTTTTTTTTTTTTTTT DIIS        TELAPSE       65.81 TCPU       65.70
 DIIS TEST: 0.19294E-05 AT SCF   CYCLE   9 - DIIS ACTIVE - HISTORY:     9 CYCLES
 TTTTTTTTTTTTTTTTTTTTTTTTTTTTTT FDIK        TELAPSE       66.34 TCPU       66.23
 INSULATING STATE
 TOP OF VALENCE BANDS -    BAND     80; K  121; EIG -1.8814767E-01 AU
 TOP OF VALENCE BANDS -    BAND     80; K    1; EIG -2.0503134E-01 AU
 BOTTOM OF VIRTUAL BANDS - BAND     81; K  101; EIG -6.5513224E-02 AU
 INDIRECT ENERGY BAND GAP:   3.3371 eV
 BOTTOM OF VIRTUAL BANDS - BAND     81; K    1; EIG -5.4770066E-02 AU
 TTTTTTTTTTTTTTTTTTTTTTTTTTTTTT PDIG        TELAPSE       66.40 TCPU       66.29
 TTTTTTTTTTTTTTTTTTTTTTTTTTTTTT MOQGAD      TELAPSE       66.41 TCPU       66.30
 TTTTTTTTTTTTTTTTTTTTTTTTTTTTTT SHELLXN     TELAPSE       71.40 TCPU       71.28
 TTTTTTTTTTTTTTTTTTTTTTTTTTTTTT MONMO3      TELAPSE       71.45 TCPU       71.34
 NUMERICALLY INTEGRATED DENSITY    160.0000462605
 TTTTTTTTTTTTTTTTTTTTTTTTTTTTTT NUMDFT      TELAPSE       71.85 TCPU       71.74
 CYC  10 ETOT(AU) -2.191905700027E+03 DETOT -2.00E-07 tst  2.48E-09 PX  1.28E-04
 TTTTTTTTTTTTTTTTTTTTTTTTTTTTTT DIIS        TELAPSE       71.87 TCPU       71.76
 DIIS TEST: 0.53078E-06 AT SCF   CYCLE  10 - DIIS ACTIVE - HISTORY:    10 CYCLES
 TTTTTTTTTTTTTTTTTTTTTTTTTTTTTT FDIK        TELAPSE       72.42 TCPU       72.30
 INSULATING STATE
 TOP OF VALENCE BANDS -    BAND     80; K  121; EIG -1.8818687E-01 AU
 TOP OF VALENCE BANDS -    BAND     80; K    1; EIG -2.0501509E-01 AU
 BOTTOM OF VIRTUAL BANDS - BAND     81; K  101; EIG -6.5506976E-02 AU
 INDIRECT ENERGY BAND GAP:   3.3383 eV
 BOTTOM OF VIRTUAL BANDS - BAND     81; K    1; EIG -5.4776307E-02 AU
 TTTTTTTTTTTTTTTTTTTTTTTTTTTTTT PDIG        TELAPSE       72.47 TCPU       72.36
 TTTTTTTTTTTTTTTTTTTTTTTTTTTTTT MOQGAD      TELAPSE       72.48 TCPU       72.37
 TTTTTTTTTTTTTTTTTTTTTTTTTTTTTT SHELLXN     TELAPSE       77.45 TCPU       77.34
 TTTTTTTTTTTTTTTTTTTTTTTTTTTTTT MONMO3      TELAPSE       77.50 TCPU       77.39
 NUMERICALLY INTEGRATED DENSITY    160.0000462579
 TTTTTTTTTTTTTTTTTTTTTTTTTTTTTT NUMDFT      TELAPSE       77.92 TCPU       77.81
 CYC  11 ETOT(AU) -2.191905700050E+03 DETOT -2.22E-08 tst  1.20E-09 PX  6.31E-05
 TTTTTTTTTTTTTTTTTTTTTTTTTTTTTT DIIS        TELAPSE       77.94 TCPU       77.83
 DIIS TEST: 0.30812E-06 AT SCF   CYCLE  11 - DIIS ACTIVE - HISTORY:    11 CYCLES
 TTTTTTTTTTTTTTTTTTTTTTTTTTTTTT FDIK        TELAPSE       78.47 TCPU       78.35
 INSULATING STATE
 TOP OF VALENCE BANDS -    BAND     80; K  121; EIG -1.8815798E-01 AU
 TOP OF VALENCE BANDS -    BAND     80; K    1; EIG -2.0502556E-01 AU
 BOTTOM OF VIRTUAL BANDS - BAND     81; K  101; EIG -6.5510375E-02 AU
 INDIRECT ENERGY BAND GAP:   3.3374 eV
 BOTTOM OF VIRTUAL BANDS - BAND     81; K    1; EIG -5.4777600E-02 AU
 TTTTTTTTTTTTTTTTTTTTTTTTTTTTTT PDIG        TELAPSE       78.52 TCPU       78.41
 TTTTTTTTTTTTTTTTTTTTTTTTTTTTTT MOQGAD      TELAPSE       78.53 TCPU       78.42
 TTTTTTTTTTTTTTTTTTTTTTTTTTTTTT SHELLXN     TELAPSE       83.52 TCPU       83.40
 TTTTTTTTTTTTTTTTTTTTTTTTTTTTTT MONMO3      TELAPSE       83.57 TCPU       83.46
 NUMERICALLY INTEGRATED DENSITY    160.0000462587
 TTTTTTTTTTTTTTTTTTTTTTTTTTTTTT NUMDFT      TELAPSE       83.96 TCPU       83.84
 CYC  12 ETOT(AU) -2.191905700043E+03 DETOT  6.99E-09 tst  1.28E-09 PX  6.16E-05
 TTTTTTTTTTTTTTTTTTTTTTTTTTTTTT DIIS        TELAPSE       83.98 TCPU       83.87
 DIIS TEST: 0.22673E-06 AT SCF   CYCLE  12 - DIIS ACTIVE - HISTORY:    12 CYCLES
 TTTTTTTTTTTTTTTTTTTTTTTTTTTTTT FDIK        TELAPSE       84.53 TCPU       84.41
 INSULATING STATE
 TOP OF VALENCE BANDS -    BAND     80; K  121; EIG -1.8816977E-01 AU
 TOP OF VALENCE BANDS -    BAND     80; K    1; EIG -2.0502360E-01 AU
 BOTTOM OF VIRTUAL BANDS - BAND     81; K  101; EIG -6.5509316E-02 AU
 INDIRECT ENERGY BAND GAP:   3.3378 eV
 BOTTOM OF VIRTUAL BANDS - BAND     81; K    1; EIG -5.4769378E-02 AU
 TTTTTTTTTTTTTTTTTTTTTTTTTTTTTT PDIG        TELAPSE       84.59 TCPU       84.47
 TTTTTTTTTTTTTTTTTTTTTTTTTTTTTT MOQGAD      TELAPSE       84.59 TCPU       84.48
 TTTTTTTTTTTTTTTTTTTTTTTTTTTTTT SHELLXN     TELAPSE       89.57 TCPU       89.45
 TTTTTTTTTTTTTTTTTTTTTTTTTTTTTT MONMO3      TELAPSE       89.62 TCPU       89.51
 NUMERICALLY INTEGRATED DENSITY    160.0000462593
 TTTTTTTTTTTTTTTTTTTTTTTTTTTTTT NUMDFT      TELAPSE       90.01 TCPU       89.89
 CYC  13 ETOT(AU) -2.191905700059E+03 DETOT -1.65E-08 tst  6.52E-10 PX  4.06E-05
 TTTTTTTTTTTTTTTTTTTTTTTTTTTTTT DIIS        TELAPSE       90.03 TCPU       89.92
 DIIS TEST: 0.57645E-07 AT SCF   CYCLE  13 - DIIS ACTIVE - HISTORY:    13 CYCLES
 TTTTTTTTTTTTTTTTTTTTTTTTTTTTTT FDIK        TELAPSE       90.58 TCPU       90.47
 INSULATING STATE
 TOP OF VALENCE BANDS -    BAND     80; K  121; EIG -1.8817366E-01 AU
 TOP OF VALENCE BANDS -    BAND     80; K    1; EIG -2.0502057E-01 AU
 BOTTOM OF VIRTUAL BANDS - BAND     81; K  101; EIG -6.5508191E-02 AU
 INDIRECT ENERGY BAND GAP:   3.3379 eV
 BOTTOM OF VIRTUAL BANDS - BAND     81; K    1; EIG -5.4779897E-02 AU
 TTTTTTTTTTTTTTTTTTTTTTTTTTTTTT PDIG        TELAPSE       90.64 TCPU       90.53
 TTTTTTTTTTTTTTTTTTTTTTTTTTTTTT MOQGAD      TELAPSE       90.65 TCPU       90.54
 TTTTTTTTTTTTTTTTTTTTTTTTTTTTTT SHELLXN     TELAPSE       95.64 TCPU       95.52
 TTTTTTTTTTTTTTTTTTTTTTTTTTTTTT MONMO3      TELAPSE       95.69 TCPU       95.58
 NUMERICALLY INTEGRATED DENSITY    160.0000462578
 TTTTTTTTTTTTTTTTTTTTTTTTTTTTTT NUMDFT      TELAPSE       96.08 TCPU       95.96
 CYC  14 ETOT(AU) -2.191905700051E+03 DETOT  8.28E-09 tst  1.19E-10 PX  2.15E-05
 TTTTTTTTTTTTTTTTTTTTTTTTTTTTTT DIIS        TELAPSE       96.10 TCPU       95.98
 DIIS TEST: 0.48937E-07 AT SCF   CYCLE  14 - DIIS ACTIVE - HISTORY:    14 CYCLES
 TTTTTTTTTTTTTTTTTTTTTTTTTTTTTT FDIK        TELAPSE       96.66 TCPU       96.54
 INSULATING STATE
 TOP OF VALENCE BANDS -    BAND     80; K  121; EIG -1.8816936E-01 AU
 TOP OF VALENCE BANDS -    BAND     80; K    1; EIG -2.0502306E-01 AU
 BOTTOM OF VIRTUAL BANDS - BAND     81; K  101; EIG -6.5508964E-02 AU
 INDIRECT ENERGY BAND GAP:   3.3378 eV
 BOTTOM OF VIRTUAL BANDS - BAND     81; K    1; EIG -5.4774132E-02 AU
 TTTTTTTTTTTTTTTTTTTTTTTTTTTTTT PDIG        TELAPSE       96.72 TCPU       96.60
 TTTTTTTTTTTTTTTTTTTTTTTTTTTTTT MOQGAD      TELAPSE       96.72 TCPU       96.61
 TTTTTTTTTTTTTTTTTTTTTTTTTTTTTT SHELLXN     TELAPSE      101.69 TCPU      101.58
 TTTTTTTTTTTTTTTTTTTTTTTTTTTTTT MONMO3      TELAPSE      101.75 TCPU      101.63
 NUMERICALLY INTEGRATED DENSITY    160.0000462587
 TTTTTTTTTTTTTTTTTTTTTTTTTTTTTT NUMDFT      TELAPSE      102.16 TCPU      102.05
 CYC  15 ETOT(AU) -2.191905700059E+03 DETOT -8.63E-09 tst  2.01E-11 PX  9.79E-06
 TTTTTTTTTTTTTTTTTTTTTTTTTTTTTT DIIS        TELAPSE      102.18 TCPU      102.07
 DIIS TEST: 0.57665E-08 AT SCF   CYCLE  15 - DIIS ACTIVE - HISTORY:    15 CYCLES
 TTTTTTTTTTTTTTTTTTTTTTTTTTTTTT FDIK        TELAPSE      102.77 TCPU      102.65
 INSULATING STATE
 TOP OF VALENCE BANDS -    BAND     80; K  121; EIG -1.8817036E-01 AU
 TOP OF VALENCE BANDS -    BAND     80; K    1; EIG -2.0502269E-01 AU
 BOTTOM OF VIRTUAL BANDS - BAND     81; K  101; EIG -6.5508762E-02 AU
 INDIRECT ENERGY BAND GAP:   3.3378 eV
 BOTTOM OF VIRTUAL BANDS - BAND     81; K    1; EIG -5.4774481E-02 AU
 TTTTTTTTTTTTTTTTTTTTTTTTTTTTTT PDIG        TELAPSE      102.83 TCPU      102.71
 TTTTTTTTTTTTTTTTTTTTTTTTTTTTTT MOQGAD      TELAPSE      102.83 TCPU      102.72
 TTTTTTTTTTTTTTTTTTTTTTTTTTTTTT SHELLXN     TELAPSE      107.82 TCPU      107.71
 TTTTTTTTTTTTTTTTTTTTTTTTTTTTTT MONMO3      TELAPSE      107.87 TCPU      107.76
 NUMERICALLY INTEGRATED DENSITY    160.0000462586
 TTTTTTTTTTTTTTTTTTTTTTTTTTTTTT NUMDFT      TELAPSE      108.27 TCPU      108.16
 CYC  16 ETOT(AU) -2.191905700056E+03 DETOT  2.91E-09 tst  7.24E-13 PX  1.53E-06
 TTTTTTTTTTTTTTTTTTTTTTTTTTTTTT DIIS        TELAPSE      108.30 TCPU      108.18
 DIIS TEST: 0.27770E-09 AT SCF   CYCLE  16 - DIIS ACTIVE - HISTORY:    16 CYCLES
 TTTTTTTTTTTTTTTTTTTTTTTTTTTTTT FDIK        TELAPSE      108.85 TCPU      108.73
 INSULATING STATE
 TOP OF VALENCE BANDS -    BAND     80; K  121; EIG -1.8816945E-01 AU
 TOP OF VALENCE BANDS -    BAND     80; K    1; EIG -2.0502300E-01 AU
 BOTTOM OF VIRTUAL BANDS - BAND     81; K  101; EIG -6.5509028E-02 AU
 INDIRECT ENERGY BAND GAP:   3.3378 eV
 BOTTOM OF VIRTUAL BANDS - BAND     81; K    1; EIG -5.4774087E-02 AU
 TTTTTTTTTTTTTTTTTTTTTTTTTTTTTT PDIG        TELAPSE      108.90 TCPU      108.79
 TTTTTTTTTTTTTTTTTTTTTTTTTTTTTT MOQGAD      TELAPSE      108.91 TCPU      108.80
 TTTTTTTTTTTTTTTTTTTTTTTTTTTTTT SHELLXN     TELAPSE      113.88 TCPU      113.77
 TTTTTTTTTTTTTTTTTTTTTTTTTTTTTT MONMO3      TELAPSE      113.94 TCPU      113.82
 NUMERICALLY INTEGRATED DENSITY    160.0000462586
 TTTTTTTTTTTTTTTTTTTTTTTTTTTTTT NUMDFT      TELAPSE      114.32 TCPU      114.21
 CYC  17 ETOT(AU) -2.191905700059E+03 DETOT -2.88E-09 tst  1.91E-12 PX  1.71E-06
 TTTTTTTTTTTTTTTTTTTTTTTTTTTTTT DIIS        TELAPSE      114.35 TCPU      114.24
 DIIS TEST: 0.57555E-09 AT SCF   CYCLE  17 - DIIS ACTIVE - HISTORY:    17 CYCLES
 TTTTTTTTTTTTTTTTTTTTTTTTTTTTTT FDIK        TELAPSE      114.88 TCPU      114.76
 INSULATING STATE
 TOP OF VALENCE BANDS -    BAND     80; K  121; EIG -1.8816995E-01 AU
 TOP OF VALENCE BANDS -    BAND     80; K    1; EIG -2.0502281E-01 AU
 BOTTOM OF VIRTUAL BANDS - BAND     81; K  101; EIG -6.5508867E-02 AU
 INDIRECT ENERGY BAND GAP:   3.3378 eV
 BOTTOM OF VIRTUAL BANDS - BAND     81; K    1; EIG -5.4774345E-02 AU
 TTTTTTTTTTTTTTTTTTTTTTTTTTTTTT PDIG        TELAPSE      114.94 TCPU      114.82
 TTTTTTTTTTTTTTTTTTTTTTTTTTTTTT MOQGAD      TELAPSE      114.94 TCPU      114.83
 TTTTTTTTTTTTTTTTTTTTTTTTTTTTTT SHELLXN     TELAPSE      119.91 TCPU      119.80
 TTTTTTTTTTTTTTTTTTTTTTTTTTTTTT MONMO3      TELAPSE      119.96 TCPU      119.85
 NUMERICALLY INTEGRATED DENSITY    160.0000462586
 TTTTTTTTTTTTTTTTTTTTTTTTTTTTTT NUMDFT      TELAPSE      120.38 TCPU      120.26
 CYC  18 ETOT(AU) -2.191905700058E+03 DETOT  1.02E-09 tst  8.61E-13 PX  1.33E-06
 TTTTTTTTTTTTTTTTTTTTTTTTTTTTTT DIIS        TELAPSE      120.40 TCPU      120.29
 DIIS TEST: 0.11615E-09 AT SCF   CYCLE  18 - DIIS ACTIVE - HISTORY:    18 CYCLES
 TTTTTTTTTTTTTTTTTTTTTTTTTTTTTT FDIK        TELAPSE      120.75 TCPU      120.64
 INSULATING STATE
 TOP OF VALENCE BANDS -    BAND     80; K  121; EIG -1.8816995E-01 AU
 TOP OF VALENCE BANDS -    BAND     80; K    1; EIG -2.0502282E-01 AU
 BOTTOM OF VIRTUAL BANDS - BAND     81; K  101; EIG -6.5508878E-02 AU
 INDIRECT ENERGY BAND GAP:   3.3378 eV
 BOTTOM OF VIRTUAL BANDS - BAND     81; K    1; EIG -5.4774346E-02 AU
 TTTTTTTTTTTTTTTTTTTTTTTTTTTTTT PDIG        TELAPSE      120.81 TCPU      120.70
 TTTTTTTTTTTTTTTTTTTTTTTTTTTTTT MOQGAD      TELAPSE      120.82 TCPU      120.70
 TTTTTTTTTTTTTTTTTTTTTTTTTTTTTT SHELLXN     TELAPSE      125.78 TCPU      125.67
 TTTTTTTTTTTTTTTTTTTTTTTTTTTTTT MONMO3      TELAPSE      125.84 TCPU      125.72
 NUMERICALLY INTEGRATED DENSITY    160.0000462586
 TTTTTTTTTTTTTTTTTTTTTTTTTTTTTT NUMDFT      TELAPSE      126.25 TCPU      126.14
 CYC  19 ETOT(AU) -2.191905700058E+03 DETOT  3.52E-10 tst  3.05E-14 PX  3.01E-07
 TTTTTTTTTTTTTTTTTTTTTTTTTTTTTT DIIS        TELAPSE      126.28 TCPU      126.16
 DIIS TEST: 0.11469E-09 AT SCF   CYCLE  19 - DIIS ACTIVE - HISTORY:    19 CYCLES
 TTTTTTTTTTTTTTTTTTTTTTTTTTTTTT FDIK        TELAPSE      126.67 TCPU      126.55
 INSULATING STATE
 TOP OF VALENCE BANDS -    BAND     80; K  121; EIG -1.8816996E-01 AU
 TOP OF VALENCE BANDS -    BAND     80; K    1; EIG -2.0502282E-01 AU
 BOTTOM OF VIRTUAL BANDS - BAND     81; K  101; EIG -6.5508876E-02 AU
 INDIRECT ENERGY BAND GAP:   3.3378 eV
 BOTTOM OF VIRTUAL BANDS - BAND     81; K    1; EIG -5.4774345E-02 AU
 TTTTTTTTTTTTTTTTTTTTTTTTTTTTTT PDIG        TELAPSE      126.73 TCPU      126.61
 TTTTTTTTTTTTTTTTTTTTTTTTTTTTTT MOQGAD      TELAPSE      126.73 TCPU      126.62
 TTTTTTTTTTTTTTTTTTTTTTTTTTTTTT SHELLXN     TELAPSE      131.70 TCPU      131.58
 ::: PSEUDO TOTAL   ENERGY                        -2.0074637189200E+03
 ::: VIRIAL COEFFICIENT                            1.0427185084584E+00
 TTTTTTTTTTTTTTTTTTTTTTTTTTTTTT MONMO3      TELAPSE      131.75 TCPU      131.64
 NUMERICALLY INTEGRATED DENSITY    160.0000462586
 TTTTTTTTTTTTTTTTTTTTTTTTTTTTTT NUMDFT      TELAPSE      132.14 TCPU      132.02
 CYC  20 ETOT(AU) -2.191905700058E+03 DETOT -3.55E-11 tst  3.05E-14 PX  3.01E-07

 == SCF ENDED - CONVERGENCE ON ENERGY      E(AU) -2.1919057000580E+03 CYCLES  20


 ENERGY EXPRESSION=HARTREE+FOCK EXCH*0.00000+(PBE        EXCH)*1.00000+PBE        CORR


 TOTAL ENERGY(DFT)(AU)( 20) -2.1919057000580E+03 DE-3.5E-11 tester 3.0E-14
 TTTTTTTTTTTTTTTTTTTTTTTTTTTTTT EDFT        TELAPSE      132.14 TCPU      132.03
 
 INFORMATION **** DFTD3 ENERGY **** CALCULATE DFTD3 ENERGY

           DFT-D V3(BJ)
 DF                                         pbe       
 parameters
 s6       :    1.0000
 s8       :    0.7875
 a1       :    0.4289
 a2       :    4.4407
 k1 k3    :   16.0000   -4.0000
 Cutoff   :   50.2022
 CN-Cutoff:   21.1671
 
 Edisp /kcal,au:   -59.9277 -0.09550080

 E6    /kcal :   -43.9678
 E8    /kcal :   -15.9599
 
 INFORMATION **** DFTD3 ENERGY **** NORMAL TERMINATION OF DFTD3 MODULE

 *******************************************************************************

 DFT-D3 DISPERSION ENERGY CORRECTION

 D3 DISPERSION ENERGY (AU)       -9.5500803791514E-02
 TOTAL ENERGY + DISP (AU)        -2.1920012008618E+03

 *******************************************************************************

 INSULATING STATE
 TOP OF VALENCE BANDS -    BAND     80; K  121; EIG -1.8817001E-01 AU
 TOP OF VALENCE BANDS -    BAND     80; K    1; EIG -2.0502283E-01 AU
 BOTTOM OF VIRTUAL BANDS - BAND     81; K  101; EIG -6.5508866E-02 AU
 INDIRECT ENERGY BAND GAP:   3.3378 eV
 BOTTOM OF VIRTUAL BANDS - BAND     81; K    1; EIG -5.4774346E-02 AU
 EIGENVECTORS IN FORTRAN UNIT  8
 EEEEEEEEEE SCF TERMINATION  DATE 17 05 2023 TIME 14:48:26.5

     *********************************************************************
     * ***************************************************************** *
     * *        COUPLED-PERTURBED KOHN-SHAM CALCULATION (CPKS)         * *
     * *        REFERENCES TO BE QUOTED WHEN USING THIS MODULE:        * *
     * *        (1) M. Ferrero, M. Rerat, R. Orlando, R.Dovesi,        * *
     * *            J. Comput. Chem. 29 (2008), 1450;                  * *
     * *            J. Chem. Phys. 128 (2008), 014110.                 * *
     * *        (2) M. Ferrero, M. Rerat, B. Kirtman, R. Dovesi,       * *
     * *            J. Chem. Phys. 129 (2008), 244110.                 * *
     * ***************************************************************** *
     *********************************************************************

 INFORMATION **** CP_DRIVER **** CONVERGENCE ON ALPHA: 10**          -3
 INFORMATION **** CP_DRIVER **** MAX NUMBER OF CPHF/CPKS CYCLES         200
 INFORMATION **** CP_DRIVER **** CPHF/CPKS DAMPING PERCENTAGE:          60
 STATIC FIELD (OR H*NU < 1E-15 HA)

 *******************************************************************************

 ELECTRIC FIELD APPLIED ALONG CARTESIAN DIRECTION X

 *******************************************************************************
 THE NUMBER OF SYMMETRY OPERATORS HAS BEEN REDUCED FROM  4 TO  1

 NEW GRID IN RECIPROCAL SPACE
 *******************************************************************************
 POINTS IN THE IBZ                 260 SHRINKING FACTORS               8  8  8
 *******************************************************************************
 *** K POINTS COORDINATES (OBLIQUE COORDINATES IN UNITS OF SHRINK FAC. )
   1-R(  0  0  0)   2-C(  1  0  0)   3-C(  2  0  0)   4-C(  3  0  0)
   5-R(  4  0  0)   6-C(  0  1  0)   7-C(  1  1  0)   8-C(  1  7  0)
   9-C(  2  1  0)  10-C(  2  7  0)  11-C(  3  1  0)  12-C(  3  7  0)
  13-C(  4  1  0)  14-C(  0  2  0)  15-C(  1  2  0)  16-C(  1  6  0)
  17-C(  2  2  0)  18-C(  2  6  0)  19-C(  3  2  0)  20-C(  3  6  0)
  21-C(  4  2  0)  22-C(  0  3  0)  23-C(  1  3  0)  24-C(  1  5  0)
  25-C(  2  3  0)  26-C(  2  5  0)  27-C(  3  3  0)  28-C(  3  5  0)
  29-C(  4  3  0)  30-R(  0  4  0)  31-C(  1  4  0)  32-C(  2  4  0)
  33-C(  3  4  0)  34-R(  4  4  0)  35-C(  0  0  1)  36-C(  1  0  1)
  37-C(  1  0  7)  38-C(  2  0  1)  39-C(  2  0  7)  40-C(  3  0  1)
  41-C(  3  0  7)  42-C(  4  0  1)  43-C(  0  1  1)  44-C(  0  7  1)
  45-C(  1  1  1)  46-C(  1  7  7)  47-C(  1  7  1)  48-C(  1  1  7)
  49-C(  2  1  1)  50-C(  2  7  7)  51-C(  2  7  1)  52-C(  2  1  7)
  53-C(  3  1  1)  54-C(  3  7  7)  55-C(  3  7  1)  56-C(  3  1  7)
  57-C(  4  1  1)  58-C(  4  7  1)  59-C(  0  2  1)  60-C(  0  6  1)
  61-C(  1  2  1)  62-C(  1  6  7)  63-C(  1  6  1)  64-C(  1  2  7)
  65-C(  2  2  1)  66-C(  2  6  7)  67-C(  2  6  1)  68-C(  2  2  7)
  69-C(  3  2  1)  70-C(  3  6  7)  71-C(  3  6  1)  72-C(  3  2  7)
  73-C(  4  2  1)  74-C(  4  6  1)  75-C(  0  3  1)  76-C(  0  5  1)
  77-C(  1  3  1)  78-C(  1  5  7)  79-C(  1  5  1)  80-C(  1  3  7)
  81-C(  2  3  1)  82-C(  2  5  7)  83-C(  2  5  1)  84-C(  2  3  7)
  85-C(  3  3  1)  86-C(  3  5  7)  87-C(  3  5  1)  88-C(  3  3  7)
  89-C(  4  3  1)  90-C(  4  5  1)  91-C(  0  4  1)  92-C(  1  4  1)
  93-C(  1  4  7)  94-C(  2  4  1)  95-C(  2  4  7)  96-C(  3  4  1)
  97-C(  3  4  7)  98-C(  4  4  1)  99-C(  0  0  2) 100-C(  1  0  2)
 101-C(  1  0  6) 102-C(  2  0  2) 103-C(  2  0  6) 104-C(  3  0  2)
 105-C(  3  0  6) 106-C(  4  0  2) 107-C(  0  1  2) 108-C(  0  7  2)
 109-C(  1  1  2) 110-C(  1  7  6) 111-C(  1  7  2) 112-C(  1  1  6)
 113-C(  2  1  2) 114-C(  2  7  6) 115-C(  2  7  2) 116-C(  2  1  6)
 117-C(  3  1  2) 118-C(  3  7  6) 119-C(  3  7  2) 120-C(  3  1  6)
 121-C(  4  1  2) 122-C(  4  7  2) 123-C(  0  2  2) 124-C(  0  6  2)
 125-C(  1  2  2) 126-C(  1  6  6) 127-C(  1  6  2) 128-C(  1  2  6)
 129-C(  2  2  2) 130-C(  2  6  6) 131-C(  2  6  2) 132-C(  2  2  6)
 133-C(  3  2  2) 134-C(  3  6  6) 135-C(  3  6  2) 136-C(  3  2  6)
 137-C(  4  2  2) 138-C(  4  6  2) 139-C(  0  3  2) 140-C(  0  5  2)
 141-C(  1  3  2) 142-C(  1  5  6) 143-C(  1  5  2) 144-C(  1  3  6)
 145-C(  2  3  2) 146-C(  2  5  6) 147-C(  2  5  2) 148-C(  2  3  6)
 149-C(  3  3  2) 150-C(  3  5  6) 151-C(  3  5  2) 152-C(  3  3  6)
 153-C(  4  3  2) 154-C(  4  5  2) 155-C(  0  4  2) 156-C(  1  4  2)
 157-C(  1  4  6) 158-C(  2  4  2) 159-C(  2  4  6) 160-C(  3  4  2)
 161-C(  3  4  6) 162-C(  4  4  2) 163-C(  0  0  3) 164-C(  1  0  3)
 165-C(  1  0  5) 166-C(  2  0  3) 167-C(  2  0  5) 168-C(  3  0  3)
 169-C(  3  0  5) 170-C(  4  0  3) 171-C(  0  1  3) 172-C(  0  7  3)
 173-C(  1  1  3) 174-C(  1  7  5) 175-C(  1  7  3) 176-C(  1  1  5)
 177-C(  2  1  3) 178-C(  2  7  5) 179-C(  2  7  3) 180-C(  2  1  5)
 181-C(  3  1  3) 182-C(  3  7  5) 183-C(  3  7  3) 184-C(  3  1  5)
 185-C(  4  1  3) 186-C(  4  7  3) 187-C(  0  2  3) 188-C(  0  6  3)
 189-C(  1  2  3) 190-C(  1  6  5) 191-C(  1  6  3) 192-C(  1  2  5)
 193-C(  2  2  3) 194-C(  2  6  5) 195-C(  2  6  3) 196-C(  2  2  5)
 197-C(  3  2  3) 198-C(  3  6  5) 199-C(  3  6  3) 200-C(  3  2  5)
 201-C(  4  2  3) 202-C(  4  6  3) 203-C(  0  3  3) 204-C(  0  5  3)
 205-C(  1  3  3) 206-C(  1  5  5) 207-C(  1  5  3) 208-C(  1  3  5)
 209-C(  2  3  3) 210-C(  2  5  5) 211-C(  2  5  3) 212-C(  2  3  5)
 213-C(  3  3  3) 214-C(  3  5  5) 215-C(  3  5  3) 216-C(  3  3  5)
 217-C(  4  3  3) 218-C(  4  5  3) 219-C(  0  4  3) 220-C(  1  4  3)
 221-C(  1  4  5) 222-C(  2  4  3) 223-C(  2  4  5) 224-C(  3  4  3)
 225-C(  3  4  5) 226-C(  4  4  3) 227-R(  0  0  4) 228-C(  1  0  4)
 229-C(  2  0  4) 230-C(  3  0  4) 231-R(  4  0  4) 232-C(  0  1  4)
 233-C(  1  1  4) 234-C(  1  7  4) 235-C(  2  1  4) 236-C(  2  7  4)
 237-C(  3  1  4) 238-C(  3  7  4) 239-C(  4  1  4) 240-C(  0  2  4)
 241-C(  1  2  4) 242-C(  1  6  4) 243-C(  2  2  4) 244-C(  2  6  4)
 245-C(  3  2  4) 246-C(  3  6  4) 247-C(  4  2  4) 248-C(  0  3  4)
 249-C(  1  3  4) 250-C(  1  5  4) 251-C(  2  3  4) 252-C(  2  5  4)
 253-C(  3  3  4) 254-C(  3  5  4) 255-C(  4  3  4) 256-R(  0  4  4)
 257-C(  1  4  4) 258-C(  2  4  4) 259-C(  3  4  4) 260-R(  4  4  4)

 GCALCO - MAX INDICES DIRECT LATTICE VECTOR    13    12    19
 NO.OF VECTORS CREATED 6999 STARS 1052 RMAX   157.51672 BOHR
 TTTTTTTTTTTTTTTTTTTTTTTTTTTTTT gordsh1     TELAPSE      172.60 TCPU      172.47

 MATRIX SIZE: P(G)  365380, F(G)  183272, P(G) IRR  184104, F(G) IRR  184104
 MAX G-VECTOR INDEX FOR 1- AND 2-ELECTRON INTEGRALS  77

 TTTTTTTTTTTTTTTTTTTTTTTTTTTTTT INPUT       TELAPSE      172.61 TCPU      172.48
 TTTTTTTTTTTTTTTTTTTTTTTTTTTTTT SYMM        TELAPSE      172.71 TCPU      172.57

 ***** NEW REFERENCE GEOMETRY *****
 TTTTTTTTTTTTTTTTTTTTTTTTTTTTTT INT_SCREEN  TELAPSE      174.00 TCPU      173.86

 DFT PARAMETERS

     ATOM       ELECTRONS   NET CHARGE   R(ANGSTROM)
   1  16  S      16.0000      0.0000     1.04000000
   3   6  C       6.0000      0.0000     0.77000000
   5   7  N       7.0000      0.0000     0.74000000
  17   1  H       1.0000      0.0000     1.11000000

 SIZE OF GRID=    1583086
 TTTTTTTTTTTTTTTTTTTTTTTTTTTTTT MAKE_GRID2  TELAPSE      177.52 TCPU      177.38
 BECKE WEIGHT FUNCTION
 RADSAFE =     2.00
 TOLERANCES - DENSITY:10**- 6; POTENTIAL:10**- 9; GRID WGT:10**-14

 RADIAL INTEGRATION  - INTERVALS (POINTS,UPPER LIMIT):            1( 99,  4.0*R)

 ANGULAR INTEGRATION - INTERVALS (ACCURACY LEVEL [N. POINTS] UPPER LIMIT):
  1(  6[ 146]   0.2)  2( 11[ 302]   0.5)  3( 14[ 590]   0.9)  4( 18[1454]   3.5)
  5( 14[ 590]9999.0)
 TTTTTTTTTTTTTTTTTTTTTTTTTTTTTT INT_CALC    TELAPSE      177.55 TCPU      177.41
 CYCLE   0   ALPHA  336.083134  EPSILON    2.816971  DELTA    3.3608E+02
 WARNING **** GENBUF **** COULOMB BIPO BUFFER TOO SMALL - TO AVOID I/O SET BIPOSIZE =     4582200
 WARNING **** GENPOL2 **** COULOMB BIPO BUFFER EXCEEDED - TO AVOID I/O SET BIPOSIZE TO     4582200
 TTTTTTTTTTTTTTTTTTTTTTTTTTTTTT MOQGAD      TELAPSE      191.28 TCPU      191.11
 TTTTTTTTTTTTTTTTTTTTTTTTTTTTTT CP_MONMON   TELAPSE      192.55 TCPU      192.38
 DIIS TEST: 0.25608E+02 AT CPHF  CYCLE   1 - MIX   60 %
 CYCLE   1   ALPHA  216.054841  EPSILON    2.168060  DELTA   -1.2003E+02
 WARNING **** GENBUF **** COULOMB BIPO BUFFER TOO SMALL - TO AVOID I/O SET BIPOSIZE =     4582200
 WARNING **** GENPOL2 **** COULOMB BIPO BUFFER EXCEEDED - TO AVOID I/O SET BIPOSIZE TO     4582200
 TTTTTTTTTTTTTTTTTTTTTTTTTTTTTT MOQGAD      TELAPSE      203.95 TCPU      203.79
 TTTTTTTTTTTTTTTTTTTTTTTTTTTTTT CP_MONMON   TELAPSE      205.22 TCPU      205.05
 DIIS TEST: 0.74784E+02 AT CPHF  CYCLE   2 - DIIS ACTIVE - HISTORY:     2 CYCLES
 CYCLE   2   ALPHA  273.634450  EPSILON    2.479353  DELTA    5.7580E+01
 WARNING **** GENBUF **** COULOMB BIPO BUFFER TOO SMALL - TO AVOID I/O SET BIPOSIZE =     4582200
 WARNING **** GENPOL2 **** COULOMB BIPO BUFFER EXCEEDED - TO AVOID I/O SET BIPOSIZE TO     4582200
 TTTTTTTTTTTTTTTTTTTTTTTTTTTTTT MOQGAD      TELAPSE      216.58 TCPU      216.42
 TTTTTTTTTTTTTTTTTTTTTTTTTTTTTT CP_MONMON   TELAPSE      217.85 TCPU      217.68
 DIIS TEST: 0.28445E+01 AT CPHF  CYCLE   3 - DIIS ACTIVE - HISTORY:     3 CYCLES
 CYCLE   3   ALPHA  280.020572  EPSILON    2.513879  DELTA    6.3861E+00
 WARNING **** GENBUF **** COULOMB BIPO BUFFER TOO SMALL - TO AVOID I/O SET BIPOSIZE =     4582200
 WARNING **** GENPOL2 **** COULOMB BIPO BUFFER EXCEEDED - TO AVOID I/O SET BIPOSIZE TO     4582200
 TTTTTTTTTTTTTTTTTTTTTTTTTTTTTT MOQGAD      TELAPSE      229.22 TCPU      229.05
 TTTTTTTTTTTTTTTTTTTTTTTTTTTTTT CP_MONMON   TELAPSE      230.48 TCPU      230.31
 DIIS TEST: 0.38987E-01 AT CPHF  CYCLE   4 - DIIS ACTIVE - HISTORY:     4 CYCLES
 CYCLE   4   ALPHA  280.289881  EPSILON    2.515335  DELTA    2.6931E-01
 WARNING **** GENBUF **** COULOMB BIPO BUFFER TOO SMALL - TO AVOID I/O SET BIPOSIZE =     4582200
 WARNING **** GENPOL2 **** COULOMB BIPO BUFFER EXCEEDED - TO AVOID I/O SET BIPOSIZE TO     4582200
 TTTTTTTTTTTTTTTTTTTTTTTTTTTTTT MOQGAD      TELAPSE      241.86 TCPU      241.69
 TTTTTTTTTTTTTTTTTTTTTTTTTTTTTT CP_MONMON   TELAPSE      243.12 TCPU      242.95
 DIIS TEST: 0.72464E-02 AT CPHF  CYCLE   5 - DIIS ACTIVE - HISTORY:     5 CYCLES
 CYCLE   5   ALPHA  280.357091  EPSILON    2.515698  DELTA    6.7210E-02
 WARNING **** GENBUF **** COULOMB BIPO BUFFER TOO SMALL - TO AVOID I/O SET BIPOSIZE =     4582200
 WARNING **** GENPOL2 **** COULOMB BIPO BUFFER EXCEEDED - TO AVOID I/O SET BIPOSIZE TO     4582200
 TTTTTTTTTTTTTTTTTTTTTTTTTTTTTT MOQGAD      TELAPSE      254.48 TCPU      254.31
 TTTTTTTTTTTTTTTTTTTTTTTTTTTTTT CP_MONMON   TELAPSE      255.74 TCPU      255.57
 DIIS TEST: 0.10676E-02 AT CPHF  CYCLE   6 - DIIS ACTIVE - HISTORY:     6 CYCLES
 CYCLE   6   ALPHA  280.378447  EPSILON    2.515814  DELTA    2.1356E-02
 WARNING **** GENBUF **** COULOMB BIPO BUFFER TOO SMALL - TO AVOID I/O SET BIPOSIZE =     4582200
 WARNING **** GENPOL2 **** COULOMB BIPO BUFFER EXCEEDED - TO AVOID I/O SET BIPOSIZE TO     4582200
 TTTTTTTTTTTTTTTTTTTTTTTTTTTTTT MOQGAD      TELAPSE      267.13 TCPU      266.96
 TTTTTTTTTTTTTTTTTTTTTTTTTTTTTT CP_MONMON   TELAPSE      268.39 TCPU      268.22
 DIIS TEST: 0.34243E-04 AT CPHF  CYCLE   7 - DIIS ACTIVE - HISTORY:     7 CYCLES
 CYCLE   7   ALPHA  280.369569  EPSILON    2.515766  DELTA   -8.8783E-03
 WARNING **** GENBUF **** COULOMB BIPO BUFFER TOO SMALL - TO AVOID I/O SET BIPOSIZE =     4582200
 WARNING **** GENPOL2 **** COULOMB BIPO BUFFER EXCEEDED - TO AVOID I/O SET BIPOSIZE TO     4582200
 TTTTTTTTTTTTTTTTTTTTTTTTTTTTTT MOQGAD      TELAPSE      279.77 TCPU      279.60
 TTTTTTTTTTTTTTTTTTTTTTTTTTTTTT CP_MONMON   TELAPSE      281.04 TCPU      280.87
 DIIS TEST: 0.27259E-05 AT CPHF  CYCLE   8 - DIIS ACTIVE - HISTORY:     8 CYCLES
 CYCLE   8   ALPHA  280.365720  EPSILON    2.515745  DELTA   -3.8490E-03
 WARNING **** GENBUF **** COULOMB BIPO BUFFER TOO SMALL - TO AVOID I/O SET BIPOSIZE =     4582200
 WARNING **** GENPOL2 **** COULOMB BIPO BUFFER EXCEEDED - TO AVOID I/O SET BIPOSIZE TO     4582200
 TTTTTTTTTTTTTTTTTTTTTTTTTTTTTT MOQGAD      TELAPSE      318.93 TCPU      318.76
 TTTTTTTTTTTTTTTTTTTTTTTTTTTTTT CP_MONMON   TELAPSE      320.20 TCPU      320.03
 DIIS TEST: 0.31493E-06 AT CPHF  CYCLE   9 - DIIS ACTIVE - HISTORY:     9 CYCLES
 CYCLE   9   ALPHA  280.365046  EPSILON    2.515741  DELTA   -6.7398E-04
 TTTTTTTTTTTTTTTTTTTTTTTTTTTTTT CP_SC       TELAPSE      326.54 TCPU      326.37

 *******************************************************************************

 ELECTRIC FIELD APPLIED ALONG CARTESIAN DIRECTION Y

 *******************************************************************************
 THE NUMBER OF SYMMETRY OPERATORS HAS BEEN REDUCED FROM  4 TO  1

 NEW GRID IN RECIPROCAL SPACE
 *******************************************************************************
 POINTS IN THE IBZ                 260 SHRINKING FACTORS               8  8  8
 *******************************************************************************
 *** K POINTS COORDINATES (OBLIQUE COORDINATES IN UNITS OF SHRINK FAC. )
   1-R(  0  0  0)   2-C(  1  0  0)   3-C(  2  0  0)   4-C(  3  0  0)
   5-R(  4  0  0)   6-C(  0  1  0)   7-C(  1  1  0)   8-C(  1  7  0)
   9-C(  2  1  0)  10-C(  2  7  0)  11-C(  3  1  0)  12-C(  3  7  0)
  13-C(  4  1  0)  14-C(  0  2  0)  15-C(  1  2  0)  16-C(  1  6  0)
  17-C(  2  2  0)  18-C(  2  6  0)  19-C(  3  2  0)  20-C(  3  6  0)
  21-C(  4  2  0)  22-C(  0  3  0)  23-C(  1  3  0)  24-C(  1  5  0)
  25-C(  2  3  0)  26-C(  2  5  0)  27-C(  3  3  0)  28-C(  3  5  0)
  29-C(  4  3  0)  30-R(  0  4  0)  31-C(  1  4  0)  32-C(  2  4  0)
  33-C(  3  4  0)  34-R(  4  4  0)  35-C(  0  0  1)  36-C(  1  0  1)
  37-C(  1  0  7)  38-C(  2  0  1)  39-C(  2  0  7)  40-C(  3  0  1)
  41-C(  3  0  7)  42-C(  4  0  1)  43-C(  0  1  1)  44-C(  0  7  1)
  45-C(  1  1  1)  46-C(  1  7  7)  47-C(  1  7  1)  48-C(  1  1  7)
  49-C(  2  1  1)  50-C(  2  7  7)  51-C(  2  7  1)  52-C(  2  1  7)
  53-C(  3  1  1)  54-C(  3  7  7)  55-C(  3  7  1)  56-C(  3  1  7)
  57-C(  4  1  1)  58-C(  4  7  1)  59-C(  0  2  1)  60-C(  0  6  1)
  61-C(  1  2  1)  62-C(  1  6  7)  63-C(  1  6  1)  64-C(  1  2  7)
  65-C(  2  2  1)  66-C(  2  6  7)  67-C(  2  6  1)  68-C(  2  2  7)
  69-C(  3  2  1)  70-C(  3  6  7)  71-C(  3  6  1)  72-C(  3  2  7)
  73-C(  4  2  1)  74-C(  4  6  1)  75-C(  0  3  1)  76-C(  0  5  1)
  77-C(  1  3  1)  78-C(  1  5  7)  79-C(  1  5  1)  80-C(  1  3  7)
  81-C(  2  3  1)  82-C(  2  5  7)  83-C(  2  5  1)  84-C(  2  3  7)
  85-C(  3  3  1)  86-C(  3  5  7)  87-C(  3  5  1)  88-C(  3  3  7)
  89-C(  4  3  1)  90-C(  4  5  1)  91-C(  0  4  1)  92-C(  1  4  1)
  93-C(  1  4  7)  94-C(  2  4  1)  95-C(  2  4  7)  96-C(  3  4  1)
  97-C(  3  4  7)  98-C(  4  4  1)  99-C(  0  0  2) 100-C(  1  0  2)
 101-C(  1  0  6) 102-C(  2  0  2) 103-C(  2  0  6) 104-C(  3  0  2)
 105-C(  3  0  6) 106-C(  4  0  2) 107-C(  0  1  2) 108-C(  0  7  2)
 109-C(  1  1  2) 110-C(  1  7  6) 111-C(  1  7  2) 112-C(  1  1  6)
 113-C(  2  1  2) 114-C(  2  7  6) 115-C(  2  7  2) 116-C(  2  1  6)
 117-C(  3  1  2) 118-C(  3  7  6) 119-C(  3  7  2) 120-C(  3  1  6)
 121-C(  4  1  2) 122-C(  4  7  2) 123-C(  0  2  2) 124-C(  0  6  2)
 125-C(  1  2  2) 126-C(  1  6  6) 127-C(  1  6  2) 128-C(  1  2  6)
 129-C(  2  2  2) 130-C(  2  6  6) 131-C(  2  6  2) 132-C(  2  2  6)
 133-C(  3  2  2) 134-C(  3  6  6) 135-C(  3  6  2) 136-C(  3  2  6)
 137-C(  4  2  2) 138-C(  4  6  2) 139-C(  0  3  2) 140-C(  0  5  2)
 141-C(  1  3  2) 142-C(  1  5  6) 143-C(  1  5  2) 144-C(  1  3  6)
 145-C(  2  3  2) 146-C(  2  5  6) 147-C(  2  5  2) 148-C(  2  3  6)
 149-C(  3  3  2) 150-C(  3  5  6) 151-C(  3  5  2) 152-C(  3  3  6)
 153-C(  4  3  2) 154-C(  4  5  2) 155-C(  0  4  2) 156-C(  1  4  2)
 157-C(  1  4  6) 158-C(  2  4  2) 159-C(  2  4  6) 160-C(  3  4  2)
 161-C(  3  4  6) 162-C(  4  4  2) 163-C(  0  0  3) 164-C(  1  0  3)
 165-C(  1  0  5) 166-C(  2  0  3) 167-C(  2  0  5) 168-C(  3  0  3)
 169-C(  3  0  5) 170-C(  4  0  3) 171-C(  0  1  3) 172-C(  0  7  3)
 173-C(  1  1  3) 174-C(  1  7  5) 175-C(  1  7  3) 176-C(  1  1  5)
 177-C(  2  1  3) 178-C(  2  7  5) 179-C(  2  7  3) 180-C(  2  1  5)
 181-C(  3  1  3) 182-C(  3  7  5) 183-C(  3  7  3) 184-C(  3  1  5)
 185-C(  4  1  3) 186-C(  4  7  3) 187-C(  0  2  3) 188-C(  0  6  3)
 189-C(  1  2  3) 190-C(  1  6  5) 191-C(  1  6  3) 192-C(  1  2  5)
 193-C(  2  2  3) 194-C(  2  6  5) 195-C(  2  6  3) 196-C(  2  2  5)
 197-C(  3  2  3) 198-C(  3  6  5) 199-C(  3  6  3) 200-C(  3  2  5)
 201-C(  4  2  3) 202-C(  4  6  3) 203-C(  0  3  3) 204-C(  0  5  3)
 205-C(  1  3  3) 206-C(  1  5  5) 207-C(  1  5  3) 208-C(  1  3  5)
 209-C(  2  3  3) 210-C(  2  5  5) 211-C(  2  5  3) 212-C(  2  3  5)
 213-C(  3  3  3) 214-C(  3  5  5) 215-C(  3  5  3) 216-C(  3  3  5)
 217-C(  4  3  3) 218-C(  4  5  3) 219-C(  0  4  3) 220-C(  1  4  3)
 221-C(  1  4  5) 222-C(  2  4  3) 223-C(  2  4  5) 224-C(  3  4  3)
 225-C(  3  4  5) 226-C(  4  4  3) 227-R(  0  0  4) 228-C(  1  0  4)
 229-C(  2  0  4) 230-C(  3  0  4) 231-R(  4  0  4) 232-C(  0  1  4)
 233-C(  1  1  4) 234-C(  1  7  4) 235-C(  2  1  4) 236-C(  2  7  4)
 237-C(  3  1  4) 238-C(  3  7  4) 239-C(  4  1  4) 240-C(  0  2  4)
 241-C(  1  2  4) 242-C(  1  6  4) 243-C(  2  2  4) 244-C(  2  6  4)
 245-C(  3  2  4) 246-C(  3  6  4) 247-C(  4  2  4) 248-C(  0  3  4)
 249-C(  1  3  4) 250-C(  1  5  4) 251-C(  2  3  4) 252-C(  2  5  4)
 253-C(  3  3  4) 254-C(  3  5  4) 255-C(  4  3  4) 256-R(  0  4  4)
 257-C(  1  4  4) 258-C(  2  4  4) 259-C(  3  4  4) 260-R(  4  4  4)

 GCALCO - MAX INDICES DIRECT LATTICE VECTOR    13    12    19
 NO.OF VECTORS CREATED 6999 STARS 1052 RMAX   157.51672 BOHR
 TTTTTTTTTTTTTTTTTTTTTTTTTTTTTT gordsh1     TELAPSE      330.87 TCPU      330.70

 MATRIX SIZE: P(G)  365380, F(G)  183272, P(G) IRR  184104, F(G) IRR  184104
 MAX G-VECTOR INDEX FOR 1- AND 2-ELECTRON INTEGRALS  77

 TTTTTTTTTTTTTTTTTTTTTTTTTTTTTT INPUT       TELAPSE      330.88 TCPU      330.71
 TTTTTTTTTTTTTTTTTTTTTTTTTTTTTT SYMM        TELAPSE      330.88 TCPU      330.71

 ***** NEW REFERENCE GEOMETRY *****
 TTTTTTTTTTTTTTTTTTTTTTTTTTTTTT INT_SCREEN  TELAPSE      331.85 TCPU      331.68

 DFT PARAMETERS

     ATOM       ELECTRONS   NET CHARGE   R(ANGSTROM)
   1  16  S      16.0000      0.0000     1.04000000
   3   6  C       6.0000      0.0000     0.77000000
   5   7  N       7.0000      0.0000     0.74000000
  17   1  H       1.0000      0.0000     1.11000000

 SIZE OF GRID=    1583086
 TTTTTTTTTTTTTTTTTTTTTTTTTTTTTT MAKE_GRID2  TELAPSE      334.91 TCPU      334.73
 BECKE WEIGHT FUNCTION
 RADSAFE =     2.00
 TOLERANCES - DENSITY:10**- 6; POTENTIAL:10**- 9; GRID WGT:10**-14

 RADIAL INTEGRATION  - INTERVALS (POINTS,UPPER LIMIT):            1( 99,  4.0*R)

 ANGULAR INTEGRATION - INTERVALS (ACCURACY LEVEL [N. POINTS] UPPER LIMIT):
  1(  6[ 146]   0.2)  2( 11[ 302]   0.5)  3( 14[ 590]   0.9)  4( 18[1454]   3.5)
  5( 14[ 590]9999.0)
 TTTTTTTTTTTTTTTTTTTTTTTTTTTTTT INT_CALC    TELAPSE      334.94 TCPU      334.77
 CYCLE   0   ALPHA  500.124594  EPSILON    3.703830  DELTA    5.0012E+02
 WARNING **** GENBUF **** COULOMB BIPO BUFFER TOO SMALL - TO AVOID I/O SET BIPOSIZE =     4582200
[...]
            Z    -0.0002   -0.0022   -0.0368   -0.0366    0.0023    0.0031
 AT.  26 H  X    -0.0004   -0.0057    0.0252   -0.0251   -0.0016    0.0021
            Y    -0.0044   -0.0446   -0.0008    0.0005   -0.0001    0.0004
            Z     0.0002   -0.0022    0.0368   -0.0366   -0.0023    0.0031
 AT.  27 H  X    -0.0004   -0.0057   -0.0252   -0.0251    0.0016    0.0021
            Y    -0.0044   -0.0446    0.0008    0.0005    0.0001    0.0004
            Z    -0.0002    0.0022    0.0368    0.0366   -0.0023   -0.0031
 AT.  28 H  X    -0.0004    0.0057   -0.0252    0.0251    0.0016   -0.0021
            Y     0.0044   -0.0446   -0.0008    0.0005   -0.0001    0.0004
            Z     0.0002    0.0022   -0.0368    0.0366    0.0023   -0.0031
 AT.  29 H  X     0.0026   -0.0174   -0.0293   -0.0294    0.0016    0.0027
            Y     0.0038   -0.0090    0.0731    0.0729   -0.0039   -0.0069
            Z    -0.0039    0.0268    0.0277    0.0276   -0.0016   -0.0026
 AT.  30 H  X     0.0026    0.0174   -0.0293    0.0294    0.0016   -0.0027
            Y    -0.0038   -0.0090   -0.0731    0.0729    0.0039   -0.0069
            Z     0.0039    0.0268   -0.0277    0.0276    0.0016   -0.0026
 AT.  31 H  X     0.0026    0.0174    0.0293    0.0294   -0.0016   -0.0027
            Y    -0.0038   -0.0090    0.0731    0.0729   -0.0039   -0.0069
            Z    -0.0039   -0.0268   -0.0277   -0.0276    0.0016    0.0026
 AT.  32 H  X     0.0026   -0.0174    0.0293   -0.0294   -0.0016    0.0027
            Y     0.0038   -0.0090   -0.0731    0.0729    0.0039   -0.0069
            Z     0.0039   -0.0268    0.0277   -0.0276   -0.0016    0.0026

 FREQ(CM**-1)   3229.29   3230.50   3272.30   3275.42   3337.83   3338.24

 AT.   1 S  X    -0.0000   -0.0000    0.0000    0.0000    0.0000    0.0000
            Y     0.0000    0.0000    0.0000    0.0000   -0.0001   -0.0001
            Z     0.0001    0.0001   -0.0001   -0.0001    0.0000    0.0000
 AT.   2 S  X     0.0000   -0.0000   -0.0000    0.0000    0.0000    0.0000
            Y     0.0000    0.0000    0.0000    0.0000   -0.0001    0.0001
            Z     0.0001   -0.0001   -0.0001    0.0001    0.0000    0.0000
 AT.   3 C  X     0.0001    0.0001   -0.0000   -0.0001    0.0000    0.0000
            Y     0.0000    0.0000    0.0000    0.0000   -0.0001   -0.0000
            Z    -0.0006   -0.0005    0.0001    0.0003    0.0000    0.0000
 AT.   4 C  X    -0.0001    0.0001    0.0000   -0.0001    0.0000    0.0000
            Y     0.0000    0.0000    0.0000    0.0000   -0.0001    0.0000
            Z    -0.0006    0.0005    0.0001   -0.0003    0.0000    0.0000
 AT.   5 N  X    -0.0004   -0.0002    0.0003    0.0004    0.0000   -0.0000
            Y     0.0032    0.0021   -0.0052   -0.0055    0.0000   -0.0000
            Z     0.0010    0.0007   -0.0004   -0.0006   -0.0000    0.0001
 AT.   6 N  X     0.0004   -0.0002   -0.0003    0.0004   -0.0000   -0.0000
            Y     0.0032   -0.0021   -0.0052    0.0055    0.0000    0.0000
            Z     0.0010   -0.0007   -0.0004    0.0006   -0.0000   -0.0001
 AT.   7 N  X    -0.0004   -0.0002    0.0003    0.0004   -0.0000    0.0000
            Y    -0.0032   -0.0021    0.0052    0.0055    0.0000   -0.0000
            Z     0.0010    0.0007   -0.0004   -0.0006    0.0000   -0.0001
 AT.   8 N  X     0.0004   -0.0002   -0.0003    0.0004    0.0000    0.0000
            Y    -0.0032    0.0021    0.0052   -0.0055    0.0000    0.0000
            Z     0.0010   -0.0007   -0.0004    0.0006    0.0000    0.0001
 AT.   9 S  X     0.0001    0.0001    0.0000    0.0000    0.0000    0.0000
            Y     0.0000    0.0000    0.0000    0.0000   -0.0000    0.0001
            Z    -0.0001   -0.0001    0.0000    0.0000    0.0000    0.0000
 AT.  10 S  X    -0.0001    0.0001   -0.0000    0.0000    0.0000    0.0000
            Y     0.0000    0.0000    0.0000    0.0000   -0.0000   -0.0001
            Z    -0.0001    0.0001    0.0000   -0.0000    0.0000    0.0000
 AT.  11 C  X    -0.0002   -0.0003    0.0002    0.0001    0.0000    0.0000
            Y     0.0000    0.0000    0.0000    0.0000   -0.0001    0.0000
            Z     0.0003    0.0005   -0.0002   -0.0001    0.0000    0.0000
 AT.  12 C  X     0.0002   -0.0003   -0.0002    0.0001    0.0000    0.0000
            Y     0.0000    0.0000    0.0000    0.0000   -0.0001   -0.0000
            Z     0.0003   -0.0005   -0.0002    0.0001    0.0000    0.0000
 AT.  13 N  X     0.0002    0.0002    0.0007   -0.0014   -0.0044   -0.0044
            Y    -0.0049   -0.0053   -0.0033   -0.0009    0.0027    0.0027
            Z     0.0006    0.0007   -0.0004    0.0021    0.0059    0.0058
 AT.  14 N  X    -0.0002    0.0002   -0.0007   -0.0014    0.0044   -0.0044
            Y    -0.0049    0.0053   -0.0033    0.0009    0.0027   -0.0027
            Z     0.0006   -0.0007   -0.0004   -0.0021    0.0059   -0.0058
 AT.  15 N  X     0.0002    0.0002    0.0007   -0.0014    0.0044    0.0044
            Y     0.0049    0.0053    0.0033    0.0009    0.0027    0.0027
            Z     0.0006    0.0007   -0.0004    0.0021   -0.0059   -0.0058
 AT.  16 N  X    -0.0002    0.0002   -0.0007   -0.0014   -0.0044    0.0044
            Y     0.0049   -0.0053    0.0033   -0.0009    0.0027   -0.0027
            Z     0.0006   -0.0007   -0.0004   -0.0021   -0.0059    0.0058
 AT.  17 H  X    -0.0026   -0.0019    0.0079    0.0075   -0.0001    0.0002
            Y    -0.0007    0.0003    0.0003    0.0012    0.0000   -0.0000
            Z     0.0104    0.0074   -0.0277   -0.0278    0.0004   -0.0008
 AT.  18 H  X     0.0026   -0.0019   -0.0079    0.0075    0.0001    0.0002
            Y    -0.0007   -0.0003    0.0003   -0.0012    0.0000    0.0000
            Z     0.0104   -0.0074   -0.0277    0.0278    0.0004    0.0008
 AT.  19 H  X    -0.0026   -0.0019    0.0079    0.0075    0.0001   -0.0002
            Y     0.0007   -0.0003   -0.0003   -0.0012    0.0000   -0.0000
            Z     0.0104    0.0074   -0.0277   -0.0278   -0.0004    0.0008
 AT.  20 H  X     0.0026   -0.0019   -0.0079    0.0075   -0.0001   -0.0002
            Y     0.0007    0.0003   -0.0003    0.0012    0.0000    0.0000
            Z     0.0104   -0.0074   -0.0277    0.0278   -0.0004   -0.0008
 AT.  21 H  X     0.0071    0.0048   -0.0116   -0.0121   -0.0003    0.0003
            Y    -0.0400   -0.0264    0.0650    0.0689   -0.0002    0.0001
            Z    -0.0212   -0.0146    0.0332    0.0349   -0.0002    0.0002
 AT.  22 H  X    -0.0071    0.0048    0.0116   -0.0121    0.0003    0.0003
            Y    -0.0400    0.0264    0.0650   -0.0689   -0.0002   -0.0001
            Z    -0.0212    0.0146    0.0332   -0.0349   -0.0002   -0.0002
 AT.  23 H  X     0.0071    0.0048   -0.0116   -0.0121    0.0003   -0.0003
            Y     0.0400    0.0264   -0.0650   -0.0689   -0.0002    0.0001
            Z    -0.0212   -0.0146    0.0332    0.0349    0.0002   -0.0002
 AT.  24 H  X    -0.0071    0.0048    0.0116   -0.0121   -0.0003   -0.0003
            Y     0.0400   -0.0264   -0.0650    0.0689   -0.0002   -0.0001
            Z    -0.0212    0.0146    0.0332   -0.0349    0.0002    0.0002
 AT.  25 H  X     0.0230    0.0257    0.0068    0.0215    0.0454    0.0450
            Y     0.0002    0.0011   -0.0004    0.0006   -0.0001   -0.0002
            Z    -0.0330   -0.0372   -0.0090   -0.0319   -0.0662   -0.0663
 AT.  26 H  X    -0.0230    0.0257   -0.0068    0.0215   -0.0454    0.0450
            Y     0.0002   -0.0011   -0.0004   -0.0006   -0.0001    0.0002
            Z    -0.0330    0.0372   -0.0090    0.0319   -0.0662    0.0663
 AT.  27 H  X     0.0230    0.0257    0.0068    0.0215   -0.0454   -0.0450
            Y    -0.0002   -0.0011    0.0004   -0.0006   -0.0001   -0.0002
            Z    -0.0330   -0.0372   -0.0090   -0.0319    0.0662    0.0663
 AT.  28 H  X    -0.0230    0.0257   -0.0068    0.0215    0.0454   -0.0450
            Y    -0.0002    0.0011    0.0004    0.0006   -0.0001    0.0002
            Z    -0.0330    0.0372   -0.0090    0.0319    0.0662   -0.0663
 AT.  29 H  X    -0.0252   -0.0270   -0.0168   -0.0037    0.0147    0.0149
            Y     0.0609    0.0660    0.0407    0.0115   -0.0352   -0.0354
            Z     0.0238    0.0255    0.0153    0.0035   -0.0139   -0.0139
 AT.  30 H  X     0.0252   -0.0270    0.0168   -0.0037   -0.0147    0.0149
            Y     0.0609   -0.0660    0.0407   -0.0115   -0.0352    0.0354
            Z     0.0238   -0.0255    0.0153   -0.0035   -0.0139    0.0139
 AT.  31 H  X    -0.0252   -0.0270   -0.0168   -0.0037   -0.0147   -0.0149
            Y    -0.0609   -0.0660   -0.0407   -0.0115   -0.0352   -0.0354
            Z     0.0238    0.0255    0.0153    0.0035    0.0139    0.0139
 AT.  32 H  X     0.0252   -0.0270    0.0168   -0.0037    0.0147   -0.0149
            Y    -0.0609    0.0660   -0.0407    0.0115   -0.0352    0.0354
            Z     0.0238   -0.0255    0.0153   -0.0035    0.0139   -0.0139

 FREQ(CM**-1)   3362.69   3365.20   3444.19   3444.92   3453.32   3456.56

 AT.   1 S  X    -0.0000   -0.0000    0.0000    0.0000   -0.0000   -0.0000
            Y     0.0000    0.0000    0.0000    0.0000    0.0000    0.0000
            Z    -0.0000    0.0000    0.0000    0.0000    0.0001    0.0001
 AT.   2 S  X    -0.0000    0.0000    0.0000    0.0000    0.0000   -0.0000
            Y     0.0000    0.0000   -0.0000    0.0000    0.0000    0.0000
            Z     0.0000    0.0000    0.0000    0.0000    0.0001   -0.0001
 AT.   3 C  X     0.0000    0.0000    0.0000    0.0000    0.0001    0.0001
            Y     0.0000    0.0000    0.0000    0.0000    0.0000    0.0000
            Z    -0.0002   -0.0002    0.0000    0.0000   -0.0002   -0.0003
 AT.   4 C  X     0.0000   -0.0000    0.0000    0.0000   -0.0001    0.0001
            Y     0.0000    0.0000   -0.0000    0.0000    0.0000    0.0000
            Z     0.0002   -0.0002    0.0000    0.0000   -0.0002    0.0003
 AT.   5 N  X    -0.0002   -0.0000   -0.0019   -0.0019    0.0019    0.0018
            Y    -0.0014    0.0006    0.0016    0.0016   -0.0018   -0.0021
            Z     0.0009   -0.0001    0.0068    0.0068   -0.0068   -0.0067
 AT.   6 N  X    -0.0002    0.0000   -0.0019    0.0019   -0.0019    0.0018
            Y     0.0014    0.0006   -0.0016    0.0016   -0.0018    0.0021
            Z    -0.0009   -0.0001   -0.0068    0.0068   -0.0068    0.0067
 AT.   7 N  X    -0.0002   -0.0000    0.0019    0.0019    0.0019    0.0018
            Y     0.0014   -0.0006    0.0016    0.0016    0.0018    0.0021
            Z     0.0009   -0.0001   -0.0068   -0.0068   -0.0068   -0.0067
 AT.   8 N  X    -0.0002    0.0000    0.0019   -0.0019   -0.0019    0.0018
            Y    -0.0014   -0.0006   -0.0016    0.0016    0.0018   -0.0021
            Z    -0.0009   -0.0001    0.0068   -0.0068   -0.0068    0.0067
 AT.   9 S  X    -0.0001    0.0000    0.0000    0.0000   -0.0000   -0.0000
            Y     0.0000    0.0000   -0.0000   -0.0000    0.0000    0.0000
            Z     0.0001    0.0000    0.0000    0.0000    0.0000    0.0000
 AT.  10 S  X    -0.0001   -0.0000    0.0000    0.0000    0.0000   -0.0000
            Y     0.0000    0.0000    0.0000   -0.0000    0.0000    0.0000
            Z    -0.0001    0.0000    0.0000    0.0000    0.0000   -0.0000
 AT.  11 C  X     0.0002   -0.0002    0.0000    0.0000    0.0001    0.0001
            Y     0.0000    0.0000    0.0000   -0.0001    0.0000    0.0000
            Z    -0.0004    0.0003    0.0000    0.0000   -0.0001   -0.0002
 AT.  12 C  X     0.0002    0.0002    0.0000    0.0000   -0.0001    0.0001
            Y     0.0000    0.0000   -0.0000   -0.0001    0.0000    0.0000
            Z     0.0004    0.0003    0.0000    0.0000   -0.0001    0.0002
 AT.  13 N  X     0.0041    0.0045    0.0000   -0.0000   -0.0002    0.0005
            Y    -0.0034   -0.0024   -0.0000    0.0000   -0.0003   -0.0007
            Z    -0.0053   -0.0058   -0.0000    0.0000    0.0003   -0.0006
 AT.  14 N  X     0.0041   -0.0045    0.0000    0.0000    0.0002    0.0005
            Y     0.0034   -0.0024    0.0000    0.0000   -0.0003    0.0007
            Z     0.0053   -0.0058    0.0000    0.0000    0.0003    0.0006
 AT.  15 N  X     0.0041    0.0045   -0.0000    0.0000   -0.0002    0.0005
            Y     0.0034    0.0024   -0.0000    0.0000    0.0003    0.0007
            Z    -0.0053   -0.0058    0.0000   -0.0000    0.0003   -0.0006
 AT.  16 N  X     0.0041   -0.0045   -0.0000   -0.0000    0.0002    0.0005
            Y    -0.0034    0.0024    0.0000    0.0000    0.0003   -0.0007
            Z     0.0053   -0.0058   -0.0000   -0.0000    0.0003    0.0006
 AT.  17 H  X     0.0054   -0.0013    0.0222    0.0222   -0.0219   -0.0215
            Y     0.0003    0.0001   -0.0009   -0.0009    0.0004    0.0007
            Z    -0.0197    0.0072   -0.0829   -0.0829    0.0815    0.0798
 AT.  18 H  X     0.0054    0.0013    0.0222   -0.0222    0.0219   -0.0215
            Y    -0.0003    0.0001    0.0009   -0.0009    0.0004   -0.0007
            Z     0.0197    0.0072    0.0829   -0.0829    0.0815   -0.0798
 AT.  19 H  X     0.0054   -0.0013   -0.0222   -0.0222   -0.0219   -0.0215
            Y    -0.0003   -0.0001   -0.0009   -0.0009   -0.0004   -0.0007
            Z    -0.0197    0.0072    0.0829    0.0829    0.0815    0.0798
 AT.  20 H  X     0.0054    0.0013   -0.0222    0.0222    0.0219   -0.0215
            Y     0.0003   -0.0001    0.0009   -0.0009   -0.0004    0.0007
            Z     0.0197    0.0072   -0.0829    0.0829    0.0815   -0.0798
 AT.  21 H  X    -0.0028    0.0016    0.0038    0.0038   -0.0042   -0.0046
            Y     0.0178   -0.0086   -0.0212   -0.0212    0.0239    0.0267
            Z     0.0086   -0.0047   -0.0105   -0.0106    0.0120    0.0133
 AT.  22 H  X    -0.0028   -0.0016    0.0038   -0.0038    0.0042   -0.0046
            Y    -0.0178   -0.0086    0.0212   -0.0212    0.0239   -0.0267
            Z    -0.0086   -0.0047    0.0105   -0.0106    0.0120   -0.0133
 AT.  23 H  X    -0.0028    0.0016   -0.0038   -0.0038   -0.0042   -0.0046
            Y    -0.0178    0.0086   -0.0212   -0.0212   -0.0239   -0.0267
            Z     0.0086   -0.0047    0.0105    0.0106    0.0120    0.0133
 AT.  24 H  X    -0.0028   -0.0016   -0.0038    0.0038    0.0042   -0.0046
            Y     0.0178    0.0086    0.0212   -0.0212   -0.0239    0.0267
            Z    -0.0086   -0.0047   -0.0105    0.0106    0.0120   -0.0133
 AT.  25 H  X    -0.0392   -0.0462   -0.0003    0.0000    0.0034   -0.0044
            Y     0.0005    0.0005    0.0001   -0.0002   -0.0004    0.0003
            Z     0.0573    0.0664    0.0006   -0.0003   -0.0047    0.0066
 AT.  26 H  X    -0.0392    0.0462   -0.0003   -0.0000   -0.0034   -0.0044
            Y    -0.0005    0.0005   -0.0001   -0.0002   -0.0004   -0.0003
            Z    -0.0573    0.0664   -0.0006   -0.0003   -0.0047   -0.0066
 AT.  27 H  X    -0.0392   -0.0462    0.0003   -0.0000    0.0034   -0.0044
            Y    -0.0005   -0.0005    0.0001   -0.0002    0.0004   -0.0003
            Z     0.0573    0.0664   -0.0006    0.0003   -0.0047    0.0066
 AT.  28 H  X    -0.0392    0.0462    0.0003    0.0000   -0.0034   -0.0044
            Y     0.0005   -0.0005   -0.0001   -0.0002    0.0004    0.0003
            Z    -0.0573    0.0664    0.0006    0.0003   -0.0047   -0.0066
 AT.  29 H  X    -0.0176   -0.0137    0.0003   -0.0001   -0.0017   -0.0031
            Y     0.0430    0.0316    0.0004   -0.0002    0.0033    0.0087
            Z     0.0164    0.0126    0.0002    0.0001    0.0012    0.0030
 AT.  30 H  X    -0.0176    0.0137    0.0003    0.0001    0.0017   -0.0031
            Y    -0.0430    0.0316   -0.0004   -0.0002    0.0033   -0.0087
            Z    -0.0164    0.0126   -0.0002    0.0001    0.0012   -0.0030
 AT.  31 H  X    -0.0176   -0.0137   -0.0003    0.0001   -0.0017   -0.0031
            Y    -0.0430   -0.0316    0.0004   -0.0002   -0.0033   -0.0087
            Z     0.0164    0.0126   -0.0002   -0.0001    0.0012    0.0030
 AT.  32 H  X    -0.0176    0.0137   -0.0003   -0.0001    0.0017   -0.0031
            Y     0.0430   -0.0316   -0.0004   -0.0002   -0.0033    0.0087
            Z    -0.0164    0.0126    0.0002   -0.0001    0.0012   -0.0030

 *******************************************************************************

 VIBRATIONAL TEMPERATURES (K) [MODE NUMBER;IRREP]

 TO MODES
    44.2 [   4;A2 ]    56.5 [   5;A1 ]    96.5 [   6;A1 ]   112.4 [   7;B2 ]
   116.0 [   8;B1 ]   117.7 [   9;A1 ]   147.0 [  10;B1 ]   152.8 [  11;B2 ]
   155.3 [  12;A2 ]   166.9 [  13;B1 ]   167.8 [  14;A2 ]   169.1 [  15;B1 ]
   188.4 [  16;A2 ]   188.5 [  17;A1 ]   204.2 [  18;B1 ]   213.4 [  19;B2 ]
   216.9 [  20;A1 ]   235.4 [  21;B2 ]   241.9 [  22;A2 ]   274.9 [  23;A2 ]
   297.2 [  24;B2 ]   543.7 [  25;B2 ]   559.8 [  26;A2 ]   580.1 [  27;B2 ]
   596.1 [  28;A2 ]   611.4 [  29;B2 ]   618.7 [  30;A1 ]   676.3 [  31;A2 ]
   689.7 [  32;B1 ]   691.2 [  33;A1 ]   702.8 [  34;B1 ]   709.6 [  35;A1 ]
   752.6 [  36;B1 ]   825.2 [  37;B2 ]   826.4 [  38;A2 ]   831.0 [  39;A1 ]
   846.8 [  40;B1 ]   853.5 [  41;A1 ]   855.6 [  42;B2 ]   866.8 [  43;B1 ]
   894.5 [  44;A1 ]   900.1 [  45;A2 ]   958.6 [  46;B1 ]   996.1 [  47;A2 ]
  1007.4 [  48;B2 ]  1018.3 [  49;B1 ]  1035.1 [  50;B1 ]  1038.5 [  51;A1 ]
  1045.2 [  52;A1 ]  1095.1 [  53;A1 ]  1121.3 [  54;B1 ]  1181.9 [  55;B1 ]
  1195.8 [  56;A1 ]  1533.3 [  57;A2 ]  1534.8 [  58;B2 ]  1555.0 [  59;B2 ]
  1561.6 [  60;A2 ]  1577.8 [  61;B1 ]  1581.5 [  62;A1 ]  1584.5 [  63;B1 ]
  1596.4 [  64;A1 ]  1939.2 [  65;A1 ]  1966.7 [  66;B1 ]  1999.8 [  67;A1 ]
  2018.7 [  68;B1 ]  2126.5 [  69;A2 ]  2138.1 [  70;B2 ]  2154.0 [  71;A2 ]
  2166.9 [  72;B2 ]  2283.8 [  73;B2 ]  2290.5 [  74;A2 ]  2305.4 [  75;B1 ]
  2315.4 [  76;A2 ]  2323.0 [  77;A1 ]  2339.8 [  78;B1 ]  2342.1 [  79;A1 ]
  2343.7 [  80;B2 ]  4577.0 [  81;A2 ]  4578.5 [  82;B2 ]  4615.3 [  83;A2 ]
  4616.3 [  84;B2 ]  4646.2 [  85;B1 ]  4648.0 [  86;A1 ]  4708.1 [  87;B1 ]
  4712.6 [  88;A1 ]  4802.4 [  89;B2 ]  4803.0 [  90;A2 ]  4838.1 [  91;A1 ]
  4841.8 [  92;B1 ]  4955.4 [  93;A2 ]  4956.5 [  94;B2 ]  4968.6 [  95;B1 ]
  4973.2 [  96;A1 ]

 *******************************************************************************

 HARMONIC VIBRATIONAL CONTRIBUTIONS TO THERMODYNAMIC FUNCTIONS AT GIVEN
 TEMPERATURE AND PRESSURE:

 (EL = ELECTRONIC ENERGY
  E0 = ZERO-POINT ENERGY
  ET = THERMAL CONTRIBUTION TO THE VIBRATIONAL ENERGY
  PV = PRESSURE * VOLUME
  TS = TEMPERATURE * ENTROPY)

                          AU/CELL             EV/CELL                 KJ/MOL
 EL            :   -2192.001200861823  -59647.385089911477    -5755098.34182227
 E0            :       0.244648263360       6.657217692430         642.32392493


 *******************************************************************************

 THERMODYNAMIC FUNCTIONS WITH VIBRATIONAL CONTRIBUTIONS

 AT (T =  298.15 K, P =   0.10132500E+00 MPA):

                          AU/CELL             EV/CELL                 KJ/MOL
 ET            :       0.020859400731       0.567613150776          54.76634890
 PV            :       0.000008005118       0.000217830329           0.02101743
 TS            :       0.041488489933       1.128959206251         108.92801497
 ET+PV-TS      :      -0.020621084084      -0.561128225146         -54.14064863
 EL+E0+ET+PV-TS:   -2191.777173682548  -59641.289000444187    -5754510.15854597

 OTHER THERMODYNAMIC FUNCTIONS:

                      mHARTREE/(CELL*K)     mEV/(CELL*K)              J/(MOL*K)
 ENTROPY       :       0.139153077085       3.786547731851         365.34635240
 HEAT CAPACITY :       0.124471794691       3.387049727835         326.80065091

 *******************************************************************************
 TTTTTTTTTTTTTTTTTTTTTTTTTTTTTT END         TELAPSE    14941.40 TCPU    14940.90
 EEEEEEEEEE TERMINATION  DATE 17 05 2023 TIME 18:54:58.0
NODE    0 CPU TIME =     14940.897
    TOTAL CPU TIME =   2509971.589
